"SMILES","CASRN","EXTERNALID","N","NAME","NAME","ARTICLEID","PUBMEDID","PAGE","TABLE","Melting Point {measured}","UNIT {Melting Point}","Melting Point {measured, converted}","UNIT {Melting Point}"
"[O-][N+](=O)C1=CC=CC(=C1)C(F)(F)F","-","7108","2382.0","3-Nitrobenzotrifluoride","-","A73784","-","-","-","-5.0 - -2.4","?C","-3.7","Celsius"
"CCC(=O)C(C[C@H](C)N(C)C)(C1=CC=CC=C1)C1=CC=CC=C1","-","559067","2383.0","Methadone","-","A73784","-","-","-","98.85 - 101.5","?C","100.0","Celsius"
"OC(=O)C(O)(C1=CC=CC=C1)C1=CC=CC=C1","-","6220","2384.0","hydroxy(diphenyl)acetic acid","-","A73784","-","-","-","148.85 - 151.5","?C","150.0","Celsius"
"C1=CC2=C3C4=C1C=CC1=C4C4=C(C=C1)C=CC1=C4C3=C(C=C2)C=C1","-","8761","2385.0","Coronene","-","A73784","-","-","-","437.3 - 440.0","?C","439.0","Celsius"
"BrC1=CC=C(C=C)C=C1","-","15431","2386.0","4-BROMOSTYRENE","-","A73784","-","-","-","5.0 - 7.7","?C","6.35","Celsius"
"OCCOC1=CC2=CC=CC=C2C=C1","-","6864","2387.0","2-(2-Naphthoxy)ethanol","-","A73784","-","-","-","74.0 - 76.7","?C","75.3","Celsius"
"OC1CCC2=CC=CC=C12","-","21394","2388.0","1-INDANOL","-","A73784","-","-","-","52.0 - 54.8","?C","53.4","Celsius"
"CC(=O)C1=CC=C(C=C1)[N+]([O-])=O","-","21106581","2389.0","p-Nitroacetophenone","-","A73784","-","-","-","79.0 - 81.8","?C","80.4","Celsius"
"OC1=CC=CC=C1Cl","-","13837686","2390.0","2-chlorophenol","-","A73784","-","-","-","7.0 - 9.8","?C","8.4","Celsius"
"O[Si](C1=CC=CC=C1)(C1=CC=CC=C1)C1=CC=CC=C1","-","63119","2391.0","Triphenylsilanol","-","A73784","-","-","-","152.0 - 154.8","?C","153.0","Celsius"
"CCCCCCCO","-","7837","2392.0","Heptan-1-ol","-","A73784","-","-","-","-36.0 - -33.2","?C","-34.6","Celsius"
"CC(=O)C(O)=O","-","1031","2393.0","2-Oxopropanoic acid","-","A73784","-","-","-","11.0 - 13.8","?C","12.4","Celsius"
"CCCCCCCCCC#N","-","67360","2394.0","Decanonitrile","-","A73784","-","-","-","-17.9 - -15.0","?C","-16.4","Celsius"
"ClC1=CC=C(Cl)C=C1","-","13866817","2396.0","1,4-dichlorobenzene","-","A73784","-","-","-","52.09 - 55.0","?C","53.5","Celsius"
"NC1CCCC1","-","2803","2397.0","Cyclopentylamine","-","A73784","-","-","-","-85.7 - -82.7","?C","-84.2","Celsius"
"CC1=CC=CC(O)=C1O","-","333","2398.0","3-methylcatechol","-","A73784","-","-","-","65.0 - 68.0","?C","66.5","Celsius"
"CCCCCCCCCC1=CC=C(O)C=C1","-","1688","2399.0","4-n-Nonylphenol","-","A73784","-","-","-","42.0 - 45.0","?C","43.5","Celsius"
"NC1=NC=CS1","-","2070","2400.0","2-aminothiazole","-","A73784","-","-","-","90.0 - 93.0","?C","91.5","Celsius"
"NC(=O)NO","-","3530","2401.0","hydroxyurea","-","A73784","-","-","-","141.0 - 144.0","?C","142.0","Celsius"
"O=C1CSC(=O)N1","-","5242","2402.0","2,4-Thiazolidinedione","-","A73784","-","-","-","125.0 - 128.0","?C","126.0","Celsius"
"OC(=O)CC(S)C(O)=O","-","6032","2403.0","Mercaptosuccinic acid","-","A73784","-","-","-","149.0 - 152.0","?C","150.0","Celsius"
"N(C1=CC=CC=C1)C1=CC=C(NC2=CC=CC=C2)C=C1","-","6080","2404.0","N,N'-Diphenyl-p-phenylenediamine","-","A73784","-","-","-","144.0 - 147.0","?C","146.0","Celsius"
"NC(=O)CCl","-","6332","2405.0","2-Chloroacetamide","-","A73784","-","-","-","118.0 - 121.0","?C","120.0","Celsius"
"CC(C)(C1=CC=C(O)C=C1)C1=CC=C(O)C=C1","-","6371","2406.0","bisphenol A","-","A73784","-","-","-","153.0 - 156.0","?C","154.0","Celsius"
"OC1=C2C(=O)C3=CC=CC=C3C(=O)C2=C(O)C=C1","-","6433","2407.0","1,4-Dihydroxyanthraquinone","-","A73784","-","-","-","197.0 - 200.0","?C","198.0","Celsius"
"O=C1C(=O)C2=CC=CC3=C2C1=CC=C3","-","6468","2408.0","Acenaphthenequinone","-","A73784","-","-","-","258.0 - 261.0","?C","260.0","Celsius"
"OC1=C(C=O)C=C(Br)C=C1Br","-","6757","2409.0","3,5-Dibromosalicylaldehyde","-","A73784","-","-","-","83.0 - 86.0","?C","84.5","Celsius"
"O=C1NC2=CC=CC=C2C1=O","-","6787","2410.0","1H-INDOLE-2,3-DIONE","-","A73784","-","-","-","200.0 - 203.0","?C","202.0","Celsius"
"BrCC(Br)C1=CC=CC=C1","-","6878","2411.0","(1,2-DIBROMOETHYL)BENZENE","-","A73784","-","-","-","72.0 - 75.0","?C","73.5","Celsius"
"CC(=O)CC(=O)C1=CC=CC=C1","-","6898","2412.0","Benzoylacetone","-","A73784","-","-","-","56.0 - 59.0","?C","57.5","Celsius"
"CC1=CC2=C(N1)C=CC=C2","-","6954","2413.0","2-Methylindole","-","A73784","-","-","-","58.0 - 61.0","?C","59.5","Celsius"
"CC1=CC=C(Cl)C=C1N","-","6990","2414.0","5-Chloro-2-methylaniline","-","A73784","-","-","-","23.0 - 26.0","?C","24.5","Celsius"
"ClS(=O)(=O)C1=CC=C(I)C=C1","-","7121","2415.0","4-Iodobenzenesulfonyl chloride","-","A73784","-","-","-","82.0 - 85.0","?C","83.5","Celsius"
"CC(C)NC1=CC=C(NC2=CC=CC=C2)C=C1","-","7292","2416.0","N-Isopropyl-N'-phenyl-p-phenylenediamine","-","A73784","-","-","-","74.0 - 77.0","?C","75.5","Celsius"
"CC(C)(O)CCC(C)(C)O","-","7740","2417.0","2,5-DIMETHYL-2,5-HEXANEDIOL","-","A73784","-","-","-","89.0 - 92.0","?C","90.5","Celsius"
"CCOC(=O)CCCCCCCCC(=O)OCC","-","7758","2418.0","diethyl_sebacate","-","A73784","-","-","-","2.0 - 5.0","?C","3.5","Celsius"
"[O-][N+](=O)C1=CC=CC(=C1)C(Cl)=O","-","8181","2419.0","3-Nitrobenzoyl chloride","-","A73784","-","-","-","33.0 - 36.0","?C","34.5","Celsius"
"C1=CC=C(C=C1)C1=CC=C(C=C1)C1=CC=C(C=C1)C1=CC=CC=C1","-","8353","2420.0","P-QUATERPHENYL","-","A73784","-","-","-","317.0 - 320.0","?C","318.0","Celsius"
"O=C(NNC1=CC=CC=C1)NNC1=CC=CC=C1","-","8459","2421.0","n'',n'''-diphenylcarbonohydrazide","-","A73784","-","-","-","170.0 - 173.0","?C","172.0","Celsius"
"OC(=O)CC1=CC=C(F)C=C1","-","9454","2422.0","4-FLUOROPHENYLACETIC ACID","-","A73784","-","-","-","83.0 - 86.0","?C","84.5","Celsius"
"OC1=C(C=CC(F)=C1)[N+]([O-])=O","-","9549","2423.0","5-fluoro-2-nitrophenol","-","A73784","-","-","-","33.0 - 36.0","?C","34.5","Celsius"
"CC1=CC=C(O)C(O)=C1","-","9564","2424.0","4-Methylcatechol","-","A73784","-","-","-","65.0 - 68.0","?C","66.5","Celsius"
"C1COCOC1","-","10018","2425.0","1,3-DIOXANE","-","A73784","-","-","-","-45.0 - -42.0","?C","-43.5","Celsius"
"O=C1C=C(OC2=C1C=CC=C2)C1=CC=CC=C1","-","10230","2426.0","Flavone","-","A73784","-","-","-","97.0 - 100.0","?C","98.5","Celsius"
"NC1=C(Cl)C(Cl)=C(Cl)C(Cl)=C1Cl","-","10243","2427.0","PENTACHLOROANILINE","-","A73784","-","-","-","232.0 - 235.0","?C","234.0","Celsius"
"ClN=C1C=C(Br)C(=O)C(Br)=C1","-","10378","2428.0","2,6-Dibromoquinone-4-chloroimide","-","A73784","-","-","-","80.0 - 83.0","?C","81.5","Celsius"
"NC1=CC2=C(C=C1)N=CC=C2","-","10895","2429.0","6-Aminoquinoline","-","A73784","-","-","-","114.0 - 117.0","?C","116.0","Celsius"
"CC(=O)NC1=CC=CC(Cl)=C1","-","11009","2430.0","3'-Chloroacetanilide","-","A73784","-","-","-","77.0 - 80.0","?C","78.5","Celsius"
"[O-][N+](=O)C1=CC=CC2=C1C=CC=C2[N+]([O-])=O","-","11310","2431.0","1,5-DINITRONAPHTHALENE","-","A73784","-","-","-","216.0 - 219.0","?C","218.0","Celsius"
"CNC(=O)C1=CC=CC=C1","-","11460","2432.0","N-methylbenzamide","-","A73784","-","-","-","79.0 - 82.0","?C","80.5","Celsius"
"CCCCC(N)=O","-","11795","2433.0","Valeramide","-","A73784","-","-","-","103.0 - 106.0","?C","104.0","Celsius"
"C1=CN(C=C1)C1=CC=CC=C1","-","11970","2434.0","1-Phenylpyrrole","-","A73784","-","-","-","59.0 - 62.0","?C","60.5","Celsius"
"CCCCCCCCCCCCCCCCCCCCCCCC","-","12072","2435.0","n-Tetracosane","-","A73784","-","-","-","51.0 - 54.0","?C","52.5","Celsius"
"O=C1CCCCC1=O","-","12465","2436.0","1,2-Cyclohexanedione","-","A73784","-","-","-","37.0 - 40.0","?C","38.5","Celsius"
"CCCCP(=O)(CCCC)CCCC","-","12586","2437.0","Tri-n-butylphosphine oxide","-","A73784","-","-","-","64.0 - 67.0","?C","65.5","Celsius"
"CC1=CC=C2N=C(C)C=CC2=C1","-","12840","2438.0","2,6-Dimethylquinoline","-","A73784","-","-","-","57.0 - 60.0","?C","58.5","Celsius"
"COC1=CC=C2NC=CC2=C1","-","13272","2439.0","5-Methoxyindole","-","A73784","-","-","-","54.0 - 57.0","?C","55.5","Celsius"
"CC(=O)NN","-","13420","2440.0","Acetic hydrazide","-","A73784","-","-","-","64.0 - 67.0","?C","65.5","Celsius"
"CCCCCCCCC(C)O","-","13616","2441.0","2-DECANOL","-","A73784","-","-","-","-5.0 - -2.0","?C","-3.5","Celsius"
"CS(=O)C1=CC=CC=C1","-","13860","2442.0","Methyl phenyl sulfoxide","-","A73784","-","-","-","29.0 - 32.0","?C","30.5","Celsius"
"O=C1C2=CC=CC=C2CCC2=CC=CC=C12","-","13927","2443.0","Dibenzosuberone","-","A73784","-","-","-","30.0 - 33.0","?C","31.5","Celsius"
"C(OC1=CC=C2NC=CC2=C1)C1=CC=CC=C1","-","13959","2444.0","5-Benzyloxyindole","-","A73784","-","-","-","99.0 - 102.0","?C","100.0","Celsius"
"CC(=O)C1=CC(C)=CC=C1O","-","14340","2445.0","2'-Hydroxy-5'-methylacetophenone","-","A73784","-","-","-","47.0 - 50.0","?C","48.5","Celsius"
"O1C(=CN=C1C1=CC=C(C=C1)C1=NC=C(O1)C1=CC=CC=C1)C1=CC=CC=C1","-","14960","2446.0","1,4-Bis(5-phenyloxazol-2-yl)benzene","-","A73784","-","-","-","242.0 - 245.0","?C","244.0","Celsius"
"C=CC1=CC=C(C=C1)C1=CC=CC=C1","-","15998","2447.0","4-VINYLBIPHENYL","-","A73784","-","-","-","116.0 - 119.0","?C","118.0","Celsius"
"OC(=O)C1=CC(Cl)=C(O)C(Cl)=C1","-","17704","2448.0","3,5-Dichloro-4-hydroxybenzoic acid","-","A73784","-","-","-","265.0 - 268.0","?C","266.0","Celsius"
"NC1=C(C=C(C=C1Cl)[N+]([O-])=O)[N+]([O-])=O","-","17987","2449.0","6-Chloro-2,4-dinitroaniline","-","A73784","-","-","-","154.0 - 157.0","?C","156.0","Celsius"
"OCC1=CC=CC2=CC=CC=C12","-","19669","2450.0","1-NAPHTHALENEMETHANOL","-","A73784","-","-","-","61.0 - 64.0","?C","62.5","Celsius"
"CCN1C(=O)C2=CC=CC=C2C1=O","-","19862","2451.0","N-Ethylphthalimide","-","A73784","-","-","-","76.0 - 79.0","?C","77.5","Celsius"
"CC(=O)NC1=CC=CC(=C1)[N+]([O-])=O","-","28947","2452.0","3'-Nitroacetanilide","-","A73784","-","-","-","152.0 - 155.0","?C","154.0","Celsius"
"CCCCCCCCP(=O)(CCCCCCCC)CCCCCCCC","-","59020","2453.0","Trioctylphosphine oxide","-","A73784","-","-","-","52.0 - 55.0","?C","53.5","Celsius"
"CCOC1=CC=CC=C1O","-","60121","2454.0","2-Ethoxyphenol","-","A73784","-","-","-","26.0 - 29.0","?C","27.5","Celsius"
"COC1=CC=C(N)C(=C1)[N+]([O-])=O","-","60158","2455.0","4-Methoxy-2-nitroaniline","-","A73784","-","-","-","124.0 - 127.0","?C","126.0","Celsius"
"OC(=O)CC1=CC(F)=CC=C1","-","60937","2456.0","3-Fluorophenylacetic acid","-","A73784","-","-","-","43.0 - 46.0","?C","44.5","Celsius"
"COC1=CC=C(C)C=C1OC","-","61434","2457.0","3,4-Dimethoxytoluene","-","A73784","-","-","-","24.0 - 27.0","?C","25.5","Celsius"
"CCCCCCCCC#CCCCCCCCC(O)=O","-","61475","2458.0","9-Octadecynoic acid","-","A73784","-","-","-","45.0 - 48.0","?C","46.5","Celsius"
"COC1=CC=C(C=O)C(C(O)=O)=C1OC","-","61517","2459.0","2-carboxy-3,4-dimethoxybenzaldehyde","-","A73784","-","-","-","147.0 - 150.0","?C","148.0","Celsius"
"CNC1=CC=CC=C1[N+]([O-])=O","-","62372","2460.0","N-Methyl-2-nitroaniline","-","A73784","-","-","-","35.0 - 38.0","?C","36.5","Celsius"
"OCCCCCCCCO","-","62628","2461.0","1,8-OCTANEDIOL","-","A73784","-","-","-","60.0 - 63.0","?C","61.5","Celsius"
"NNC1=C(F)C(F)=CC(F)=C1F","-","62756","2462.0","2,3,5,6-Tetrafluorophenylhydrazine","-","A73784","-","-","-","89.0 - 92.0","?C","90.5","Celsius"
"CC1=CC(Cl)=NC(Cl)=C1C#N","-","63319","2463.0","2,6-dichloro-3-cyano-4-methylpyridine","-","A73784","-","-","-","110.0 - 113.0","?C","112.0","Celsius"
"BrCC1=CC2=CC=CC=C2C=C1","-","63503","2464.0","2-(Bromomethyl)naphthalene","-","A73784","-","-","-","53.0 - 56.0","?C","54.5","Celsius"
"O1C(=CC=C1C1=CC=CC=C1)C1=CC=CC=C1","-","63567","2465.0","2,5-Diphenylfuran","-","A73784","-","-","-","88.0 - 91.0","?C","89.5","Celsius"
"C1=CC=C(C=C1)C1=CC=C2C=CC=CC2=N1","-","64618","2466.0","2-Phenylquinoline","-","A73784","-","-","-","83.0 - 86.0","?C","84.5","Celsius"
"CC(=O)C1=CC=C(OCC(O)=O)C=C1","-","67230","2467.0","4-Acetylphenoxyacetic acid","-","A73784","-","-","-","173.0 - 176.0","?C","174.0","Celsius"
"[O-][N+](=O)C1=CC=C(C=C1)N=C=S","-","67597","2468.0","4-Nitrophenyl isothiocyanate","-","A73784","-","-","-","108.0 - 111.0","?C","110.0","Celsius"
"OC(=O)C1=C(F)C=CC(F)=C1","-","68816","2469.0","2,5-Difluorobenzoic Acid","-","A73784","-","-","-","130.0 - 133.0","?C","132.0","Celsius"
"NC(=O)C1=CC=C(C=C1)C#N","-","68899","2470.0","4-cyanobenzamide","-","A73784","-","-","-","224.0 - 227.0","?C","226.0","Celsius"
"FC(F)(F)C1=CC=CC=C1CC#N","-","68907","2471.0","2-(Trifluoromethyl)phenylacetonitrile","-","A73784","-","-","-","30.0 - 33.0","?C","31.5","Celsius"
"O=S(=O)(CC1=CC=CC=C1)C1=CC=CC=C1","-","69027","2472.0","BENZYL PHENYL SULFONE","-","A73784","-","-","-","146.0 - 149.0","?C","148.0","Celsius"
"NC1=CC(Br)=CC=C1Br","-","69628","2473.0","2,5-Dibromoaniline","-","A73784","-","-","-","51.0 - 54.0","?C","52.5","Celsius"
"CC1=C(C)C(C)=C(Br)C(C)=C1C","-","71166","2474.0","Bromopentamethylbenzene","-","A73784","-","-","-","162.0 - 165.0","?C","164.0","Celsius"
"O=CC1=NC2=CC=CC=C2C=C1","-","71926","2475.0","Quinoline-2-carboxaldehyde","-","A73784","-","-","-","68.0 - 71.0","?C","69.5","Celsius"
"COC1=CC2=CC=C(OC)C=C2C=C1","-","71934","2476.0","2,6-Dimethoxynaphthalene","-","A73784","-","-","-","150.0 - 153.0","?C","152.0","Celsius"
"CC(C(O)=O)(C1=CC=CC=C1)C1=CC=CC=C1","-","71976","2477.0","Diphenylpropionic acid","-","A73784","-","-","-","173.0 - 176.0","?C","174.0","Celsius"
"CCOC(=O)C1=CNN=C1N","-","73512","2478.0","Ethyl 3-amino-1H-pyrazole-4-carboxylate","-","A73784","-","-","-","103.0 - 106.0","?C","104.0","Celsius"
"CCCCCCCCCCCCCCC(C)O","-","77368","2479.0","2-HEXADECANOL","-","A73784","-","-","-","44.0 - 47.0","?C","45.5","Celsius"
"CCOC1=CC=C2C=CC=CC2=C1C=O","-","79481","2480.0","2-Ethoxy-1-naphthaldehyde","-","A73784","-","-","-","112.0 - 115.0","?C","114.0","Celsius"
"CC(C)(C)C(=O)CC#N","-","97904","2481.0","trimethylacetylacetonitrile","-","A73784","-","-","-","68.0 - 71.0","?C","69.5","Celsius"
"CC1CNCC(C)O1","-","99508","2482.0","2,6-Dimethylmorpholine","-","A73784","-","-","-","-88.0 - -85.0","?C","-86.5","Celsius"
"N#CC1=CC=CC=C1C1=CC=CC=C1","-","124512","2483.0","o-cyanobiphenyl","-","A73784","-","-","-","38.0 - 41.0","?C","39.5","Celsius"
"O=C(OCC1=CC=CC=C1)C1=CC=CC=C1C(=O)OCC1=CC=CC=C1","-","191496","2484.0","DIBENZYL PHTHALATE","-","A73784","-","-","-","41.0 - 44.0","?C","42.5","Celsius"
"C[C@H](CCC(O)=O)[C@H]1CC[C@H]2[C@@H]3[C@H](O)C[C@@H]4C[C@H](O)CC[C@]4(C)[C@H]3C[C@H](O)[C@]12C","-","192176","2485.0","cholic acid","-","A73784","-","-","-","198.0 - 201.0","?C","200.0","Celsius"
"O=C1CCCCCCCCCCCCCCO1","-","205386","2486.0","Pentadecanolide","-","A73784","-","-","-","32.0 - 35.0","?C","33.5","Celsius"
"CCC(=O)C1=CC(F)=C(O)C(F)=C1","-","453123","2487.0","1-(3,5-difluoro-4-hydroxyphenyl)propan-1-one","-","A73784","-","-","-","127.0 - 130.0","?C","128.0","Celsius"
"CC(=O)OC1=CC=C(C=C1)C1=CC=C(OC(C)=O)C=C1","-","525308","2488.0","4,4'-diacetoxybiphenyl","-","A73784","-","-","-","161.0 - 164.0","?C","162.0","Celsius"
"NC1=C(Cl)C=CC(Cl)=C1C(O)=O","-","525531","2489.0","2-Amino-3,6-dichlorobenzoic acid","-","A73784","-","-","-","152.0 - 155.0","?C","154.0","Celsius"
"OCC=CCO","-","558888","2490.0","cis-2-Butene-1,4-Diol","-","A73784","-","-","-","4.0 - 7.0","?C","5.5","Celsius"
"COC(=O)C1=CC=C(Cl)C(=C1)[N+]([O-])=O","-","642951","2491.0","Methyl 4-chloro-3-nitrobenzoate","-","A73784","-","-","-","80.0 - 83.0","?C","81.5","Celsius"
"OC(=O)\C=C\C1=CC=CC=C1[N+]([O-])=O","-","643069","2492.0","trans-2-Nitrocinnamic acid","-","A73784","-","-","-","244.0 - 247.0","?C","246.0","Celsius"
"O=C\C=C\C1=CC=CO1","-","1266397","2493.0","3-(2-Furyl)acrolein","-","A73784","-","-","-","51.0 - 54.0","?C","52.5","Celsius"
"N#C\C=C\C1=CC=CC=C1","-","1267328","2494.0","trans-Cinnamonitrile","-","A73784","-","-","-","19.0 - 22.0","?C","20.5","Celsius"
"CC1=NN=C(S)S1","-","1414905","2495.0","2-Mercapto-5-methyl-1,3,4-thiadiazole","-","A73784","-","-","-","184.0 - 187.0","?C","186.0","Celsius"
"NC(=S)NS(=O)(=O)C1=CC=C(N)C=C1","-","2272143","2496.0","Sulfathiourea","-","A73784","-","-","-","179.0 - 182.0","?C","180.0","Celsius"
"NC1=CC(=C(O)C=C1)[N+]([O-])=O","-","2661194","2497.0","4-amino-2-nitrophenol","-","A73784","-","-","-","126.0 - 129.0","?C","128.0","Celsius"
"NNC(=O)C1=CC=CC=C1[N+]([O-])=O","-","3009396","2498.0","2-Nitrobenzhydrazide","-","A73784","-","-","-","121.0 - 124.0","?C","122.0","Celsius"
"ON=C(C(O)C1=CC=CC=C1)C1=CC=CC=C1","-","4510333","2499.0","(2e)-2-(hydroxyimino)-1,2-diphenylethanol","-","A73784","-","-","-","151.0 - 154.0","?C","152.0","Celsius"
"ClC1=CC=C(C=C1)C(=O)\C=C\C1=CC=CC=C1","-","4526147","2500.0","4'-chlorochalcone","-","A73784","-","-","-","96.0 - 99.0","?C","97.5","Celsius"
"N[C@@H](CC1=CC(O)=CC=C1)C(O)=O","-","5323512","2501.0","L-m-Tyrosine","-","A73784","-","-","-","265.0 - 268.0","?C","266.0","Celsius"
"CC(=O)NC1=CC=C(C)C=C1","-","10243171","2502.0","4'-Methylacetanilide","-","A73784","-","-","-","149.0 - 152.0","?C","150.0","Celsius"
"OC(=O)C(Cl)=C(Cl)Cl","-","10289059","2503.0","Trichloroacrylic acid","-","A73784","-","-","-","73.0 - 76.0","?C","74.5","Celsius"
"OC(=O)C(F)(F)Cl","-","10800462","2504.0","Chlorodifluoroacetic acid","-","A73784","-","-","-","22.0 - 25.0","?C","23.5","Celsius"
"ClC(=O)CCC(Cl)=O","-","13867055","2505.0","SUCCINYL CHLORIDE","-","A73784","-","-","-","17.0 - 20.0","?C","18.5","Celsius"
"COC1=CC=C(C=C1)N=NC1=CC=CC=C1","-","21169898","2506.0","(e)-1-(4-methoxyphenyl)-2-phenyldiazene","-","A73784","-","-","-","53.0 - 56.0","?C","54.5","Celsius"
"OC(=O)CC1=CC=C(O)C=C1","-","124","2507.0","4-hydroxyphenylacetic acid","-","A73784","-","-","-","149.0 - 152.0","?C","150.0","Celsius"
"OCC(O)=O","-","737","2508.0","Glycol acid","-","A73784","-","-","-","77.0 - 80.0","?C","78.5","Celsius"
"CCCCCCCCCCCCCCCCCC(O)=O","-","5091","2509.0","stearic acid","-","A73784","-","-","-","68.0 - 71.0","?C","69.5","Celsius"
"CC(Cl)(Cl)Cl","-","6042","2510.0","1,1,1-Trichloroethane","-","A73784","-","-","-","-33.0 - -30.0","?C","-31.5","Celsius"
"IC(I)I","-","6134","2511.0","IODOFORM","-","A73784","-","-","-","119.0 - 122.0","?C","120.0","Celsius"
"CC(C)(C)C(O)=O","-","6177","2512.0","Trimethylacetic acid","-","A73784","-","-","-","33.0 - 36.0","?C","34.5","Celsius"
"O=C1C2=CC=CC=C2C2=C3C(C=CC=C13)=CC=C2","-","6442","2513.0","7H-benzo[de]anthracen-7-one","-","A73784","-","-","-","170.0 - 173.0","?C","172.0","Celsius"
"CC1=CC=C(Cl)C=C1[N+]([O-])=O","-","6709","2514.0","4-Chloro-2-nitrotoluene","-","A73784","-","-","-","36.0 - 39.0","?C","37.5","Celsius"
"CC1=CC=C(C(C)=C1)[N+]([O-])=O","-","6725","2515.0","2,4-Dimethyl-1-nitrobenzene","-","A73784","-","-","-","6.0 - 9.0","?C","7.5","Celsius"
"ClC(C1=CC=CC=C1)C1=CC=CC=C1","-","6768","2516.0","CHLORODIPHENYLMETHANE","-","A73784","-","-","-","16.0 - 19.0","?C","17.5","Celsius"
"N1N=C2C=CC=CC2=N1","-","6950","2517.0","1H-Benzotriazole","-","A73784","-","-","","97.0","?C","97.0","Celsius"
"CC1=C(Cl)C=C(N)C=C1","-","6985","2518.0","3-Chloro-4-methylaniline","-","A73784","-","-","-","23.0 - 26.0","?C","24.5","Celsius"
"NC1=CC(Cl)=CC=C1O","-","6995","2519.0","5-CHLORO-2-HYDROXYANILINE","-","A73784","-","-","-","140.0 - 143.0","?C","142.0","Celsius"
"FC(F)(F)C1=CC=C(Cl)C=C1","-","7116","2520.0","1-CHLORO-4-(TRIFLUOROMETHYL)BENZENE","-","A73784","-","-","-","-36.0 - -33.0","?C","-34.5","Celsius"
"OC(=O)C1=CC=C(C=C1Cl)[N+]([O-])=O","-","7168","2521.0","2-chloro-4-nitrobenzoic_acid","-","A73784","-","-","-","139.0 - 142.0","?C","140.0","Celsius"
"N#CC1=CC=NC=C1","-","7225","2522.0","Isonicotinonitrile","-","A73784","-","-","-","76.0 - 79.0","?C","77.5","Celsius"
"CC(=O)NC1=CC=C(Br)C=C1","-","7399","2523.0","p-Bromoacetanilide","-","A73784","-","-","-","166.0 - 169.0","?C","168.0","Celsius"
"C(COC1=CC=CC=C1)OC1=CC=CC=C1","-","7427","2524.0","1,2-DIPHENOXYETHANE","-","A73784","-","-","-","95.0 - 98.0","?C","96.5","Celsius"
"ClCC1=CC=C(Cl)C=C1","-","7437","2525.0","4-chlorobenzyl_chloride","-","A73784","-","-","-","28.0 - 31.0","?C","29.5","Celsius"
"ClC1=CC=C(Br)C=C1","-","7518","2526.0","p-Bromochlorobenzene","-","A73784","-","-","-","65.0 - 68.0","?C","66.5","Celsius"
"CCCCCCCCCCCCCCCCCCO","-","7928","2527.0","1-Octadecanol","-","A73784","-","-","-","58.0 - 61.0","?C","59.5","Celsius"
"CC1(C)N(Cl)C(=O)N(Cl)C1=O","-","8057","2528.0","1,3-dichloro-5,5-dimethylimidazolidine-2,4-dione","-","A73784","-","-","-","132.0 - 135.0","?C","134.0","Celsius"
"C1CCCCCCC1","-","8909","2529.0","cyclooctane","-","A73784","-","-","-","12.0 - 15.0","?C","13.5","Celsius"