"SMILES","CASRN","EXTERNALID","N","NAME","NAME","ARTICLEID","PUBMEDID","PAGE","TABLE","Melting Point {measured}","UNIT {Melting Point}","Melting Point {measured, converted}","UNIT {Melting Point}"
"FC1=CC=CC=C1C(Cl)=O","-","9425","979.0","2-FLUOROBENZOYL CHLORIDE","-","A73784","-","-","-","4.0 - 5.0","?C","4.5","Celsius"
"OC(=O)C1=CC(F)=CC=C1","-","9574","980.0","3-FLUOROBENZOIC ACID","-","A73784","-","-","-","123.0 - 124.0","?C","124.0","Celsius"
"N1C(=NC(=C1C1=CC=CC=C1)C1=CC=CC=C1)C1=CC=CC=C1","-","9815","981.0","2,4,5-Triphenylimidazole","-","A73784","-","-","-","275.0 - 276.0","?C","276.0","Celsius"
"COC1=CC(OC)=C(C=C1OC)C(O)=O","-","9856","982.0","2,4,5-Trimethoxybenzoic acid","-","A73784","-","-","-","144.0 - 145.0","?C","144.0","Celsius"
"[O-]\[N+](=N/C1=CC=CC=C1)C1=CC=CC=C1","-","9894","983.0","Azoxybenzene","-","A73784","-","-","-","35.0 - 36.0","?C","35.5","Celsius"
"C1CC2CC1C=C2","-","9925","984.0","Norbornene","-","A73784","-","-","-","45.0 - 46.0","?C","45.5","Celsius"
"OCCC1=CC=C(O)C=C1","-","9964","985.0","2-(4-Hydroxyphenyl)ethanol","-","A73784","-","-","-","90.0 - 91.0","?C","90.5","Celsius"
"OCCCCCCCCCCCCCCCC(O)=O","-","10034","986.0","16-Hydroxyhexadecanoic acid","-","A73784","-","-","-","98.0 - 99.0","?C","98.5","Celsius"
"CCOC(=O)C(O)(C1=CC=C(Cl)C=C1)C1=CC=C(Cl)C=C1","-","10085","987.0","Ethyl bis(4-chlorophenyl)(hydroxy)acetate","-","A73784","-","-","-","36.0 - 37.0","?C","36.5","Celsius"
"OCCC1=CNC2=CC=CC=C12","-","10235","988.0","Tryptophol","-","A73784","-","-","-","58.0 - 59.0","?C","58.5","Celsius"
"CC1=CC(C)=C(O)C(C)=C1","-","10248","989.0","2,4,6-Trimethylphenol","-","A73784","-","-","-","72.0 - 73.0","?C","72.5","Celsius"
"OC(=O)C1=CC(=C(C=C1)[N+]([O-])=O)[N+]([O-])=O","-","10259","990.0","3,4-DINITROBENZOIC ACID","-","A73784","-","-","-","165.0 - 166.0","?C","166.0","Celsius"
"O=C1CCCC2=CC=CC=C12","-","10273","991.0","1-TETRALONE","-","A73784","-","-","-","7.0 - 8.0","?C","7.5","Celsius"
"NC(=O)NCC1=CC=CC=C1","-","10396","992.0","benzylurea","-","A73784","-","-","-","148.0 - 149.0","?C","148.0","Celsius"
"CCCCCCCCC(=O)CCCCCCCC","-","10425","993.0","9-HEPTADECANONE","-","A73784","-","-","-","52.0 - 53.0","?C","52.5","Celsius"
"CC(C)CC(N)=O","-","10467","994.0","ISOVALERAMIDE","-","A73784","-","-","-","136.0 - 137.0","?C","136.0","Celsius"
"CC1=CC=CC(=C1N)[N+]([O-])=O","-","10824","995.0","2-METHYL-6-NITROANILINE","-","A73784","-","-","-","95.0 - 96.0","?C","95.5","Celsius"
"OCC1=CC=NC=C1","-","10988","996.0","4-Pyridinemethanol","-","A73784","-","-","-","53.0 - 54.0","?C","53.5","Celsius"
"COC(N)=O","-","11229","997.0","METHYL CARBAMATE","-","A73784","-","-","-","54.0 - 55.0","?C","54.5","Celsius"
"OC(=O)C(Cl)=C","-","11242","998.0","2-Chloroacrylic acid","-","A73784","-","-","-","65.0 - 66.0","?C","65.5","Celsius"
"CCC(C(O)=O)C(O)=O","-","11263","999.0","ETHYLMALONIC ACID","-","A73784","-","-","-","113.0 - 114.0","?C","114.0","Celsius"
"OC1=CC=CC(O)=C1[N+]([O-])=O","-","11267","1000.0","2-Nitroresorcinol","-","A73784","-","-","-","82.0 - 83.0","?C","82.5","Celsius"
"OC(=O)C1=C(F)C(F)=C(F)C(F)=C1F","-","11277","1001.0","Pentafluorobenzoic acid","-","A73784","-","-","-","101.0 - 102.0","?C","102.0","Celsius"
"CC1=CC=CC(C(O)=O)=C1C","-","11289","1002.0","2,3-Dimethylbenzoic acid","-","A73784","-","-","-","145.0 - 146.0","?C","146.0","Celsius"
"[O-][N+](=O)C1=CC2=C(C=CC=C2)C(=C1)[N+]([O-])=O","-","11325","1003.0","1,3-DINITRONAPHTHALENE","-","A73784","-","-","-","147.0 - 148.0","?C","148.0","Celsius"
"CN1C(=O)C=CC2=C1C=CC=C2","-","11327","1004.0","1-methyl-2-quinolinone","-","A73784","-","-","-","74.0 - 75.0","?C","74.5","Celsius"
"[O-][N+](=O)C1=CC=C2C(CC3=CC=CC=C23)=C1","-","11338","1005.0","2-NITRO-9H-FLUORENE","-","A73784","-","-","-","156.0 - 157.0","?C","156.0","Celsius"
"[O-][N+](=O)C1=CC=CO1","-","11372","1006.0","2-NITROFURAN","-","A73784","-","-","-","30.0 - 31.0","?C","30.5","Celsius"
"OC(=O)C1=C(C=C(C=C1)[N+]([O-])=O)[N+]([O-])=O","-","11387","1007.0","2,4-DINITROBENZOIC ACID","-","A73784","-","-","-","181.0 - 182.0","?C","182.0","Celsius"
"OC(=O)C(=O)C1=CC=CC=C1","-","11421","1008.0","Phenylglyoxylic acid","-","A73784","-","-","-","65.0 - 66.0","?C","65.5","Celsius"
"CC1=CC=C(C=C1)C1=CC=C(C)C=C1","-","11447","1009.0","4,4'-DIMETHYLBIPHENYL","-","A73784","-","-","-","120.0 - 121.0","?C","120.0","Celsius"
"N#CC1=CC2=CC=CC=C2C=C1","-","11450","1010.0","NAPHTHALENE-2-CARBONITRILE","-","A73784","-","-","-","65.0 - 66.0","?C","65.5","Celsius"
"O=C1CCCN1","-","11530","1011.0","2-Pyrrolidinone","-","A73784","-","-","-","23.0 - 24.0","?C","23.5","Celsius"
"CC1=CC=C(C=C1C)C(O)=O","-","11576","1012.0","3,4-Dimethylbenzoic acid","-","A73784","-","-","-","165.0 - 166.0","?C","166.0","Celsius"
"[O-][S+](CC1=CC=CC=C1)CC1=CC=CC=C1","-","11618","1013.0","Dibenzyl sulfoxide","-","A73784","-","-","-","133.0 - 134.0","?C","134.0","Celsius"
"CCOC1=CC=CC(=C1)C(O)=O","-","11628","1014.0","3-Ethoxybenzoic acid","-","A73784","-","-","-","136.0 - 137.0","?C","136.0","Celsius"
"NC(=O)OCC1=CC=CC=C1","-","11638","1015.0","BENZYL CARBAMATE","-","A73784","-","-","-","87.0 - 88.0","?C","87.5","Celsius"
"CCCOC1=CC=CC=C1","-","11655","1016.0","phenyl_propyl_ether","-","A73784","-","-","-","-28.0 - -27.0","?C","-27.5","Celsius"
"CC(CC(O)=O)CC(O)=O","-","11781","1017.0","3-Methylglutaric acid","-","A73784","-","-","-","86.0 - 87.0","?C","86.5","Celsius"
"CC(CCC(O)=O)CC(O)=O","-","11789","1018.0","3-METHYLADIPIC ACID","-","A73784","-","-","-","100.0 - 101.0","?C","100.0","Celsius"
"CCCCCCC#N","-","11866","1019.0","HEPTANENITRILE","-","A73784","-","-","-","-64.0 - -63.0","?C","-63.5","Celsius"
"CCCCCCCCCCCCCCCCCCCCCCCCC","-","11900","1020.0","n-Pentacosane","-","A73784","-","-","-","53.0 - 54.0","?C","53.5","Celsius"
"C1=CC=C(C=C1)C(C1=CC=CC=C1)(C1=CC=CC=C1)C1=CC=CC=C1","-","11917","1021.0","Tetraphenylmethane","-","A73784","-","-","-","282.0 - 283.0","?C","282.0","Celsius"
"CCOC(=O)C1=CC=C(C=C1)C(=O)OCC","-","11972","1022.0","DIETHYL TEREPHTHALATE","-","A73784","-","-","-","44.0 - 45.0","?C","44.5","Celsius"
"CCC1CCC2C3CCC4CCCCC4(C)C3CCC12C","-","12029","1023.0","PREGNANE, (5.BETA.)-","-","A73784","-","-","-","83.5 - 84.5","?C","84.0","Celsius"
"N#CC(C#N)=C(C#N)C#N","-","12114","1024.0","TETRACYANOETHYLENE","-","A73784","-","-","-","198.0 - 199.0","?C","198.0","Celsius"
"CP(Cl)(Cl)=O","-","12150","1025.0","METHYLPHOSPHONIC DICHLORIDE","-","A73784","-","-","-","35.0 - 36.0","?C","35.5","Celsius"
"CC1=NC=CN1","-","12225","1026.0","2-Methylimidazole","-","A73784","-","-","-","143.0 - 144.0","?C","144.0","Celsius"
"O=C1CC2=CC=CC=C2C(=O)O1","-","12274","1027.0","HOMOPHTHALIC ANHYDRIDE","-","A73784","-","-","-","142.0 - 143.0","?C","142.0","Celsius"
"CC(C)(C)C1=CC(=O)C=C(C1=O)C(C)(C)C","-","12336","1028.0","2,6-Di-tert-butyl-P-benzoquinone","-","A73784","-","-","-","66.0 - 67.0","?C","66.5","Celsius"
"O1C(=NN=C1C1=CC=CC=C1)C1=CC=CC=C1","-","12355","1029.0","2,5-Diphenyl-1,3,4-oxadiazole","-","A73784","-","-","-","139.0 - 140.0","?C","140.0","Celsius"
"CC(C)=CC=C(C)C","-","12451","1030.0","2,5-dimethyl-2,4-hexadiene","-","A73784","-","-","-","12.0 - 13.0","?C","12.5","Celsius"
"CC1=CC(C)=NC(N)=N1","-","12480","1031.0","2-AMINO-4,6-DIMETHYLPYRIMIDINE","-","A73784","-","-","-","152.0 - 153.0","?C","152.0","Celsius"
"CC1=CC(C)=C(C(C)=C1)S(Cl)(=O)=O","-","12504","1032.0","mesitylene-2-sulfonyl chloride","-","A73784","-","-","-","55.0 - 56.0","?C","55.5","Celsius"
"CC(Cl)C(Cl)(Cl)Cl","-","12579","1033.0","1,1,1,2-TETRACHLOROPROPANE","-","A73784","-","-","-","-65.0 - -64.0","?C","-64.5","Celsius"
"C=CC1=CC=C2C=CC=CC2=C1","-","12675","1034.0","2-VINYLNAPHTHALENE","-","A73784","-","-","-","65.0 - 66.0","?C","65.5","Celsius"
"NNC1=C(F)C(F)=C(F)C(F)=C1F","-","12681","1035.0","Pentafluorophenylhydrazine","-","A73784","-","-","-","75.0 - 76.0","?C","75.5","Celsius"
"O=C1CCCCCCCCCCC1","-","12690","1036.0","CYCLODODECANONE","-","A73784","-","-","-","60.0 - 61.0","?C","60.5","Celsius"
"CC1=CC=C(C=C1)C(Cl)=O","-","12831","1037.0","p-TOLUOYL CHLORIDE","-","A73784","-","-","-","-3.0 - -2.0","?C","-2.5","Celsius"
"S1C2=C(C=CC=C2)N=C1C1=CC=CC=C1","-","12864","1038.0","2-Phenylbenzothiazole","-","A73784","-","-","-","114.0 - 115.0","?C","114.0","Celsius"
"OC1=NC2=CC=CC=C2S1","-","13036","1040.0","2-HYDROXYBENZOTHIAZOLE","-","A73784","-","-","-","138.0 - 139.0","?C","138.0","Celsius"
"[O-][N+](=O)C1=C(Cl)C=CC(=C1)C#N","-","13066","1041.0","4-chloro-3-nitrobenzonitrile","-","A73784","-","-","-","99.0 - 100.0","?C","99.5","Celsius"
"[O-][N+](=O)C1=CC=C(NC2=CC=CC=C2)C(=C1)[N+]([O-])=O","-","13153","1042.0","2,4-Dinitro-N-phenylaniline","-","A73784","-","-","-","159.0 - 160.0","?C","160.0","Celsius"
"COC1=CC=C2C(=O)CCCC2=C1","-","13490","1044.0","6-Methoxy-1-tetralone","-","A73784","-","-","-","78.0 - 79.0","?C","78.5","Celsius"
"CC(=O)C1=CC=NC=C1","-","13644","1045.0","4-acetylpyridine","-","A73784","-","-","-","15.0 - 16.0","?C","15.5","Celsius"
"CC1=CC=NC(=C1)C1=CC(C)=CC=N1","-","13699","1046.0","4,4'-Dimethyl-2,2'-bipyridine","-","A73784","-","-","-","174.0 - 175.0","?C","174.0","Celsius"
"BrC1=C(Br)C(Br)=C(OC2=C(Br)C(Br)=C(Br)C(Br)=C2Br)C(Br)=C1Br","-","13764","1047.0","Bis(pentabromophenyl) ether","-","A73784","-","-","-","305.0 - 306.0","?C","306.0","Celsius"
"NS(=O)(=O)C1=C(Cl)C=CC(=C1)C(O)=O","-","13909","1048.0","4-Chloro-3-sulfamoylbenzoic acid","-","A73784","-","-","-","257.0 - 258.0","?C","258.0","Celsius"
"ClC1=CC(Br)=C(Cl)C=C1","-","14309","1050.0","2-BROMO-1,4-DICHLOROBENZENE","-","A73784","-","-","-","34.0 - 35.0","?C","34.5","Celsius"
"NC(=O)C1=CC=NC=C1","-","14346","1051.0","Isonicotinamide","-","A73784","-","-","-","156.0 - 157.0","?C","156.0","Celsius"
"FC1=CC=C(C=C1)N=C=S","-","14507","1052.0","4-Fluorophenyl isothiocyanate","-","A73784","-","-","-","26.0 - 27.0","?C","26.5","Celsius"
"COC(=O)C1=CC=C(C=C1)C(O)=O","-","14760","1053.0","mono-methyl_terephthalate","-","A73784","-","-","-","221.0 - 222.0","?C","222.0","Celsius"
"OP(=O)(C1=CC=CC=C1)C1=CC=CC=C1","-","14810","1054.0","Diphenylphosphinic acid","-","A73784","-","-","-","194.0 - 195.0","?C","194.0","Celsius"
"NC(N)=NC(=O)C1=C(N)N=C(N)C(Cl)=N1","-","15403","1055.0","Amiloride","-","A73784","-","-","-","240.0 - 241.0","?C","240.0","Celsius"
"COC1=CC=CC(OC)=C1C(C)=O","-","15435","1056.0","2',6'-Dimethoxyacetophenone","-","A73784","-","-","-","69.0 - 70.0","?C","69.5","Celsius"
"OC(=O)CCCCBr","-","15526","1057.0","5-Bromovaleric acid","-","A73784","-","-","-","39.0 - 40.0","?C","39.5","Celsius"
"ClC1=CC=C(C=C1)N=C=S","-","15622","1058.0","4-Chlorophenyl isothiocyanate","-","A73784","-","-","-","45.0 - 46.0","?C","45.5","Celsius"
"ClC1=C(Cl)N=CC=C1","-","16094","1059.0","2,3-Dichloropyridine","-","A73784","-","-","-","66.0 - 67.0","?C","66.5","Celsius"
"OC(=O)CC1=CC=CC=C1Cl","-","16208","1060.0","2-chlorophenylacetic_acid","-","A73784","-","-","-","95.0 - 96.0","?C","95.5","Celsius"
"ClC1=CC(Cl)=CN=C1","-","16237","1061.0","3,5-Dichloropyridine","-","A73784","-","-","-","65.0 - 66.0","?C","65.5","Celsius"
"CC(=O)N1C=CN=C1","-","16257","1062.0","1-Acetylimidazole","-","A73784","-","-","-","101.0 - 102.0","?C","102.0","Celsius"
"OC(=O)C1=C(C=CC(Cl)=C1)[N+]([O-])=O","-","16358","1063.0","5-CHLORO-2-NITROBENZOIC ACID","-","A73784","-","-","-","138.0 - 139.0","?C","138.0","Celsius"
"CCOC(=O)C1=CC=CC=N1","-","16377","1064.0","Ethyl picolinate","-","A73784","-","-","-","1.0 - 2.0","?C","1.5","Celsius"
"OC1=C(Br)C=C(C=O)C=C1Br","-","17097","1065.0","3,5-DIBROMO-4-HYDROXYBENZALDEHYDE","-","A73784","-","-","-","181.0 - 182.0","?C","182.0","Celsius"
"OC1=C(C=C(C=O)C=C1)[N+]([O-])=O","-","17162","1066.0","4-Hydroxy-3-nitrobenzaldehyde","-","A73784","-","-","-","141.0 - 142.0","?C","142.0","Celsius"
"N#CSCC1=CC=CC=C1","-","17163","1067.0","Benzyl thiocyanate","-","A73784","-","-","-","42.0 - 43.0","?C","42.5","Celsius"
"CS(=O)(=O)C1=CC=CC=C1","-","17347","1068.0","METHYL PHENYL SULFONE","-","A73784","-","-","-","86.0 - 87.0","?C","86.5","Celsius"
"NNC(=O)C1=CC=CO1","-","17687","1069.0","2-Furoic acid hydrazide","-","A73784","-","-","-","79.0 - 80.0","?C","79.5","Celsius"
"BrCCCCCCCCCCCCBr","-","17720","1070.0","1,12-Dibromododecane","-","A73784","-","-","-","40.0 - 41.0","?C","40.5","Celsius"
"CCNC1=CC=C(C=C1)[N+]([O-])=O","-","18227","1071.0","N-Ethyl-4-nitroaniline","-","A73784","-","-","-","96.0 - 97.0","?C","96.5","Celsius"
"S=C=NC1=CC=C(C=C1)N=C=S","-","18799","1072.0","1,4-Phenylene diisothiocyanate","-","A73784","-","-","-","131.0 - 132.0","?C","132.0","Celsius"
"CCC1=CC(=C(O)C(=C1)C(C)(C)C)C(C)(C)C","-","18924","1073.0","2,6-Di-tert-butyl-4-ethylphenol","-","A73784","-","-","-","43.0 - 44.0","?C","43.5","Celsius"
"CCCCCCCCCCCCCCCCCCCCCCCCCCCCCCCCCCCCCCCC","-","18983","1074.0","n-Tetracontane","-","A73784","-","-","-","81.0 - 82.0","?C","81.5","Celsius"
"OC(=O)CCCCCBr","-","19037","1075.0","6-BROMOHEXANOIC ACID","-","A73784","-","-","-","34.0 - 35.0","?C","34.5","Celsius"
"OC(=O)C1=CC=C(S1)C(O)=O","-","19099","1076.0","THIOPHENE-2,5-DICARBOXYLIC ACID","-","A73784","-","-","-","358.0 - 359.0","?C","358.0","Celsius"
"O=CN1CCOCC1","-","19231","1077.0","4-Formylmorpholine","-","A73784","-","-","-","21.0 - 22.0","?C","21.5","Celsius"
"CC1=CC=C(CC2=CC=C(C)C=C2)C=C1","-","19816","1078.0","4,4'-Dimethyldiphenylmethane","-","A73784","-","-","-","28.0 - 29.0","?C","28.5","Celsius"
"CC1=C(C(=CC=C1)C(O)=O)[N+]([O-])=O","-","20277","1079.0","3-METHYL-2-NITROBENZOIC ACID","-","A73784","-","-","-","221.0 - 222.0","?C","222.0","Celsius"
"BrCCCN1C(=O)C2=CC=CC=C2C1=O","-","20311","1080.0","N-(3-BROMOPROPYL)PHTHALIMIDE","-","A73784","-","-","-","74.0 - 75.0","?C","74.5","Celsius"
"CCCCCCCC1CCCCC1","-","20521","1081.0","HEPTYLCYCLOHEXANE","-","A73784","-","-","-","-31.0 - -30.0","?C","-30.5","Celsius"
"NC(=O)C1=CC=CS1","-","20732","1082.0","thiophene-2-carboxamide","-","A73784","-","-","-","181.0 - 182.0","?C","182.0","Celsius"
"N#CSCSC#N","-","21349","1083.0","Methylene bis(thiocyanate)","-","A73784","-","-","-","105.0 - 106.0","?C","106.0","Celsius"
"NS(=O)(=O)C1=CC=C(C=C1)[N+]([O-])=O","-","21360","1084.0","4-Nitrobenzenesulfonamide","-","A73784","-","-","-","179.0 - 180.0","?C","180.0","Celsius"
"NCC1CCNCC1","-","21997","1085.0","4-(Aminomethyl)piperidine","-","A73784","-","-","-","24.0 - 25.0","?C","24.5","Celsius"
"ClC(=O)C1=CC=CC=C1Br","-","22012","1086.0","2-Bromobenzoyl chloride","-","A73784","-","-","-","10.0 - 11.0","?C","10.5","Celsius"
"NC(=O)C(Br)(Br)C#N","-","23422","1087.0","2,2-DIBROMO-2-CYANOACETAMIDE","-","A73784","-","-","-","123.5 - 124.5","?C","124.0","Celsius"
"CC1(C)C2CCC1(C)C(=O)C2=O","-","23544","1088.0","Camphorquinone","-","A73784","-","-","-","199.0 - 200.0","?C","200.0","Celsius"
"CCCCCCCCCCCCC=O","-","23643","1089.0","Tridecanal","-","A73784","-","-","-","14.0 - 15.0","?C","14.5","Celsius"
"C1COC2=CC=CC=C2OCCOCCOC2=CC=CC=C2OCCO1","-","24722","1090.0","DIBENZO-18-CROWN-6","-","A73784","-","-","-","162.0 - 163.0","?C","162.0","Celsius"
"CCCCCC1=CC=C(O)C=C1","-","25119","1091.0","4-n-Pentylphenol","-","A73784","-","-","-","23.0 - 24.0","?C","23.5","Celsius"
"OCC1=C(Cl)C=CC=C1Cl","-","25276","1092.0","2,6-dichlorobenzyl alcohol","-","A73784","-","-","-","97.0 - 98.0","?C","97.5","Celsius"
"N#CC1=CC2=C(NC=C2)C=C1","-","25604","1093.0","INDOLE-5-CARBONITRILE","-","A73784","-","-","-","106.0 - 107.0","?C","106.0","Celsius"
"CCCCCCCCCCCCCC(=O)OC","-","29024","1095.0","Methyl tetradecanoate","-","A73784","-","-","-","18.0 - 19.0","?C","18.5","Celsius"
"CC1=C(Br)C=C(Br)C=C1Br","-","31264","1096.0","2,4,6-Tribromotoluene","-","A73784","-","-","-","69.0 - 70.0","?C","69.5","Celsius"
"BrC1=CC(CC#N)=CC=C1","-","33137","1097.0","m-bromophenylacetonitrile","-","A73784","-","-","-","27.0 - 28.0","?C","27.5","Celsius"
"OC(=O)C1=CC=CC=C1C1=CC=C(C=C1)C(F)(F)F","-","49895","1099.0","4'-(trifluoromethyl)biphenyl-2-carboxylic acid","-","A73784","-","-","-","169.0 - 170.0","?C","170.0","Celsius"
"OC(=O)CSC1=CC=CC=C1","-","53706","1100.0","(Phenylthio)acetic acid","-","A73784","-","-","-","64.0 - 65.0","?C","64.5","Celsius"
"CC(S)C(O)=O","-","56121","1101.0","2-Mercaptopropionic acid","-","A73784","-","-","-","11.0 - 12.0","?C","11.5","Celsius"
"C1CNCCNCCCNCCNC1","-","58489","1102.0","1,4,8,11-Tetraazacyclotetradecane","-","A73784","-","-","-","185.0 - 186.0","?C","186.0","Celsius"
"O=C1C(=C1C1=CC=CC=C1)C1=CC=CC=C1","-","58568","1103.0","2,3-Diphenyl-2-cyclopropen-1-one","-","A73784","-","-","-","119.0 - 120.0","?C","120.0","Celsius"
"NNS(=O)(=O)C1=CC=CC=C1","-","59146","1104.0","Benzenesulfonyl hydrazide","-","A73784","-","-","-","102.0 - 103.0","?C","102.0","Celsius"
"ClC(=O)N(C1=CC=CC=C1)C1=CC=CC=C1","-","59164","1105.0","Diphenylcarbamyl chloride","-","A73784","-","-","-","83.0 - 84.0","?C","83.5","Celsius"
"[O-][N+](=O)C1=CC=C(C=C1)N=C=O","-","59403","1106.0","4-Nitrophenyl isocyanate","-","A73784","-","-","-","57.0 - 58.0","?C","57.5","Celsius"
"CN1CCC(O)CC1","-","59438","1107.0","4-Hydroxy-1-methylpiperidine","-","A73784","-","-","-","28.0 - 29.0","?C","28.5","Celsius"
"ClC1=CC=CC(=C1)C(=O)C1=CC=CC=C1","-","59487","1108.0","m-Chlorobenzophenone","-","A73784","-","-","-","82.0 - 83.0","?C","82.5","Celsius"
"CC1=CC(Br)=C(C)C=C1Br","-","59562","1109.0","2,5-Dibromo-p-xylene","-","A73784","-","-","-","73.0 - 74.0","?C","73.5","Celsius"
"BrCC1=CC=CC=C1CBr","-","60032","1110.0","o-Xylylene dibromide","-","A73784","-","-","-","94.0 - 95.0","?C","94.5","Celsius"
"C(N(CC1=CC=CC=C1)C1=CC=CC=C1)C1=CC=CC=C1","-","60047","1111.0","N,N-Dibenzylaniline","-","A73784","-","-","-","69.0 - 70.0","?C","69.5","Celsius"
"COC1=CC=C(Cl)C=C1N","-","60129","1112.0","5-Chloro-o-anisidine","-","A73784","-","-","-","82.0 - 83.0","?C","82.5","Celsius"
"NS(=O)(=O)C1=CC=C(Cl)C=C1","-","60188","1113.0","4-Chlorobenzenesulfonamide","-","A73784","-","-","-","145.0 - 146.0","?C","146.0","Celsius"
"OC(=O)CSCC1=CC=CC=C1","-","60259","1114.0","(Benzylthio)acetic acid","-","A73784","-","-","-","61.0 - 62.0","?C","61.5","Celsius"
"CCOC=C(C#N)C#N","-","60497","1115.0","Ethoxymethylenemalononitrile","-","A73784","-","-","-","65.0 - 66.0","?C","65.5","Celsius"
"CC(C)=NO","-","60524","1116.0","Acetone oxime","-","A73784","-","-","-","61.0 - 62.0","?C","61.5","Celsius"
"[O-][N+](=O)C1=CC(=C(F)C=C1F)[N+]([O-])=O","-","60919","1117.0","1,5-Difluoro-2,4-dinitrobenzene","-","A73784","-","-","-","73.0 - 74.0","?C","73.5","Celsius"
"OC(=O)C1=CC=C(OC(F)(F)F)C=C1","-","60933","1118.0","4-(Trifluoromethoxy)benzoic acid","-","A73784","-","-","-","152.0 - 153.0","?C","152.0","Celsius"
"OC(=O)CC1=CC(=CC=C1)C(F)(F)F","-","61014","1119.0","3-(Trifluoromethyl)phenylacetic acid","-","A73784","-","-","-","77.0 - 78.0","?C","77.5","Celsius"
"FC1=CC=C(C=C1)C(Cl)=O","-","61196","1120.0","4-Fluorobenzoyl chloride","-","A73784","-","-","-","9.0 - 10.0","?C","9.5","Celsius"
"CC1=CC=C(F)C=C1[N+]([O-])=O","-","61280","1121.0","4-Fluoro-2-nitrotoluene","-","A73784","-","-","-","26.0 - 27.0","?C","26.5","Celsius"
"CC1=C(C)C(C)=C(CCl)C(C)=C1C","-","61399","1122.0","2,3,4,5,6-Pentamethylbenzyl chloride","-","A73784","-","-","-","82.0 - 83.0","?C","82.5","Celsius"
"S1C=CC=C1C1=CC=CS1","-","61428","1123.0","2,2'-Bithiophene","-","A73784","-","-","-","32.0 - 33.0","?C","32.5","Celsius"
"NC1=CC=CC=C1C=O","-","61553","1124.0","2-Aminobenzaldehyde","-","A73784","-","-","-","38.0 - 39.0","?C","38.5","Celsius"
"O=C(N1C=CN=C1)N1C=CN=C1","-","61561","1125.0","1,1'-Carbonyldiimidazole","-","A73784","-","-","-","118.0 - 119.0","?C","118.0","Celsius"
"N(C1=CC=CC=C1)C1=CC=C(C=C1)C1=CC=C(NC2=CC=CC=C2)C=C1","-","61577","1126.0","N,N'-Diphenylbenzidine","-","A73784","-","-","-","247.0 - 248.0","?C","248.0","Celsius"
"NC1=CC2=C(C=C1)N=CS2","-","61585","1127.0","6-Aminobenzothiazole","-","A73784","-","-","-","87.0 - 88.0","?C","87.5","Celsius"
"BrCC1=CC=C(Br)C=C1","-","61802","1128.0","4-Bromobenzyl bromide","-","A73784","-","-","-","62.0 - 63.0","?C","62.5","Celsius"
"CC#CC(O)=O","-","61810","1129.0","2-Butynoic acid","-","A73784","-","-","-","77.0 - 78.0","?C","77.5","Celsius"