"SMILES","CASRN","EXTERNALID","N","NAME","NAME","ARTICLEID","PUBMEDID","PAGE","TABLE","Melting Point {measured}","UNIT {Melting Point}","Melting Point {measured, converted}","UNIT {Melting Point}"
"CCOCCOCCO","-","13839107","2840.0","2-(2-Ethoxyethoxy)ethanol","-","A73784","-","-","-","-80.0 - -76.0","?C","-78.0","Celsius"
"COCCOCCOC","-","13839575","2841.0","2-methoxyethyl_ether","-","A73784","-","-","-","-68.0 - -64.0","?C","-66.0","Celsius"
"OC1=CC=CC(C=O)=C1","-","21105795","2842.0","3-hydroxybenzaldehyde","-","A73784","-","-","-","104.0 - 108.0","?C","106.0","Celsius"
"ClCCOC1=CC=CC=C1","-","21168833","2843.0","2-Phenoxyethyl chloride","-","A73784","-","-","-","24.0 - 28.0","?C","26.0","Celsius"
"COC1=CC=CC=C1O","-","447","2844.0","2-Methoxyphenol","-","A73784","-","-","-","28.0 - 32.0","?C","30.0","Celsius"
"OC(=O)CCCC1=CC=CC=C1","-","4611","2846.0","4-Phenylbutyric acid","-","A73784","-","-","-","48.0 - 52.0","?C","50.0","Celsius"
"O=C1C(=O)C2=CC=CC=C2C2=CC=CC=C12","-","6505","2847.0","Phenanthrene-9,10-dione","-","A73784","-","-","-","206.0 - 210.0","?C","208.0","Celsius"
"CC1=CC=CC(C)=C1N","-","6630","2848.0","2,6-Dimethylaniline","-","A73784","-","-","-","8.0 - 12.0","?C","10.0","Celsius"
"CC(C)CC(C)=O","-","7621","2849.0","4-Methylpentan-2-one","-","A73784","-","-","-","-84.0 - -80.0","?C","-82.0","Celsius"
"CCCCCCN","-","7811","2850.0","hexan-1-amine","-","A73784","-","-","-","-23.0 - -19.0","?C","-21.0","Celsius"
"OCC(CO)(CO)CO","-","7984","2851.0","Pentaerythritol","-","A73784","-","-","-","258.0 - 262.0","?C","260.0","Celsius"
"C1C2=CC=CC=C2C2=CC3=CC=CC=C3C=C12","-","8846","2852.0","2,3-Benzofluorene Benzo[b]fluorene","-","A73784","-","-","-","208.0 - 212.0","?C","210.0","Celsius"
"COC1=CC=CC(=C1)C(O)=O","-","10977","2853.0","3-METHOXYBENZOIC ACID","-","A73784","-","-","-","103.0 - 107.0","?C","105.0","Celsius"
"CC1=C(C=CC=C1[N+]([O-])=O)[N+]([O-])=O","-","11320","2854.0","2-Methyl-1,3-dinitrobenzene","-","A73784","-","-","-","62.0 - 66.0","?C","64.0","Celsius"
"[O-][N+](=O)C1=CC=CC=C1CCl","-","11427","2855.0","1-(Chloromethyl)-2-nitrobenzene","-","A73784","-","-","-","47.0 - 51.0","?C","49.0","Celsius"
"COC1=C(Cl)C(Cl)=C(Cl)C(Cl)=C1","-","13060","2856.0","2,3,4,5-TETRACHLOROANISOLE","-","A73784","-","-","-","84.0 - 88.0","?C","86.0","Celsius"
"CC(=O)NC1=CC=C(C=C1)C(O)=O","-","18177","2857.0","4-Acetamidobenzoic acid","-","A73784","-","-","-","256.0 - 260.0","?C","258.0","Celsius"
"CC(=O)C1=CC(=CC=C1)C(C)=O","-","21733","2858.0","m-diacetylbenzene","-","A73784","-","-","-","32.0 - 36.0","?C","34.0","Celsius"
"[O-][N+](=O)C1=CC=C(OC2=C(C=C(C=C2)C(F)(F)F)[N+]([O-])=O)C=C1","-","25404","2859.0","FLUORODIFEN","-","A73784","-","-","-","90.0 - 94.0","?C","92.0","Celsius"
"CCC1=CC=C(O)C=C1","-","28982","2860.0","4-Ethylphenol","-","A73784","-","-","-","43.0 - 47.0","?C","45.0","Celsius"
"[O-][N+](=O)C1=CC=CC=C1I","-","62332","2861.0","1-Iodo-2-nitrobenzene","-","A73784","-","-","-","50.0 - 54.0","?C","52.0","Celsius"
"OC1=CC=CC=C1C1=CC=CC=C1","-","13839012","2862.0","Biphenyl-2-ol","-","A73784","-","-","-","56.0 - 60.0","?C","58.0","Celsius"
"ClC(Cl)(Cl)C1=CC=CC=C1","-","13882366","2863.0","(Trichloromethyl)benzene","-","A73784","-","-","-","-8.0 - -4.0","?C","-6.0","Celsius"
"OCC=CC1=CC=CC=C1","-","21105870","2864.0","(2E)-3-phenylprop-2-en-1-ol","-","A73784","-","-","-","30.0 - 34.0","?C","32.0","Celsius"
"COC1=CC=C(OC)C=C1","-","21105878","2865.0","1,4-dimethoxybenzene","-","A73784","-","-","-","56.0 - 60.0","?C","58.0","Celsius"
"N1C2=CC=CC=C2C2=CC=CC=C12","-","6593","2867.0","carbazole","-","A73784","-","-","-","243.0 - 247.0","?C","245.0","Celsius"
"O=C(OC1=CC=CC=C1)C1=CC=CC=C1","-","6901","2868.0","phenyl_benzoate","-","A73784","-","-","-","67.0 - 71.0","?C","69.0","Celsius"
"CN(C)C(=O)NC1=CC=C(Cl)C=C1","-","8470","2869.0","monuron","-","A73784","-","-","-","170.5 - 174.5","?C","172.0","Celsius"
"BrC1=CC(Br)=C(Br)C=C1Br","-","11974","2870.0","1,2,4,5-Tetrabromobenzene","-","A73784","-","-","-","178.0 - 182.0","?C","180.0","Celsius"
"NC1=CC=C(C=C1)[N+]([O-])=O","-","13846959","2871.0","4-nitroaniline","-","A73784","-","-","-","146.0 - 150.0","?C","148.0","Celsius"
"C1=CC=C2C(C=CC3=CC4=C(C=CC5=CC=CC=C45)C=C23)=C1","-","5678","2873.0","Dibenz[ah]anthracene","-","A73784","-","-","-","266.0 - 270.0","?C","268.0","Celsius"
"OC(=O)C1=CC=CC=C1Br","-","6674","2874.0","2-BROMOBENZOIC ACID","-","A73784","-","-","-","146.0 - 150.0","?C","148.0","Celsius"
"OC1=CC(=CC=C1)[N+]([O-])=O","-","10664","2875.0","3-nitrophenol","-","A73784","-","-","-","94.0 - 98.0","?C","96.0","Celsius"
"OC(=O)C1=CC=C(Br)C=C1","-","10980","2876.0","4-Bromobenzoic Acid","-","A73784","-","-","-","252.0 - 256.0","?C","254.0","Celsius"
"NS(=O)(=O)C1=C(Cl)C=C(NCC2=CC=CO2)C(=C1)C(O)=O","-","3322","2877.0","Furosemide","-","A73784","-","-","-","204.0 - 208.0","?C","206.0","Celsius"
"[O-][N+](=O)C1=CC(Cl)=C(Cl)C=C1","-","21106095","2878.0","3,4-Dichloronitrobenzene","-","A73784","-","-","-","39.0 - 43.0","?C","41.0","Celsius"
"C(CC1=CC=CC=C1)C1=CC=CC=C1","-","7364","2879.0","bibenzyl","-","A73784","-","-","-","51.0 - 55.0","?C","53.0","Celsius"
"N1C2=CC=CC=C2SC2=CC=CC=C12","-","21106365","2880.0","Phenothazine","-","A73784","-","-","-","183.5 - 187.5","?C","186.0","Celsius"
"COC(=O)C1=CC=C(O)C=C1","-","7176","2881.0","Methyl 4-hydroxybenzoate","-","A73784","-","-","-","127.0 - 131.0","?C","129.0","Celsius"
"CCOC(=O)C1=CC=C(N)C=C1","-","13854242","2882.0","ethyl 4-aminobenzoate","-","A73784","-","-","-","88.0 - 92.0","?C","90.0","Celsius"
"C=CC=C","-","7557","2884.0","Buta-1,3-diene","-","A73784","-","-","-","-113.0 - -108.9","?C","-111.0","Celsius"
"CC#N","-","6102","2885.0","Acetonitrile","-","A73784","-","-","-","-48.0 - -43.8","?C","-45.9","Celsius"
"CCCCOCCO","-","13836399","2886.0","2-butoxyethanol","-","A73784","-","-","-","-79.0 - -74.8","?C","-76.9","Celsius"
"CCCCCCCCCCCCCCCCCO","-","14348","2887.0","heptadecan-1-ol","-","A73784","-","-","-","53.8 - 58.0","?C","55.9","Celsius"
"CC1=CC=CC(C=C)=C1","-","7248","2888.0","3-Methylstyrene","-","A73784","-","-","-","-86.3 - -82.0","?C","-84.2","Celsius"
"CC(O)(C#C)C1=CC=CC=C1","-","83147","2889.0","2-Phenyl-3-butyn-2-ol","-","A73784","-","-","-","48.0 - 52.3","?C","50.1","Celsius"
"CC1=CC=CC=C1C(O)=O","-","8070","2890.0","2-Methylbenzoic acid","-","A73784","-","-","-","103.7 - 108.0","?C","106.0","Celsius"
"BrCCCCCCBr","-","11862","2891.0","1,6-Dibromohexane","-","A73784","-","-","-","-2.3 - 2.0","?C","-0.15","Celsius"
"IC1=CC(I)=CC=C1","-","21168837","2892.0","1,3-DIIODOBENZENE","-","A73784","-","-","-","36.0 - 40.4","?C","38.2","Celsius"
"OCCCCO","-","13835209","2893.0","Butane-1,4-diol","-","A73784","-","-","-","16.0 - 20.4","?C","18.2","Celsius"
"CC1CCC(C)C1C","-","32554","2894.0","CYCLOPENTANE, 1,2,3-TRIMETHYL-, (1.ALPHA.,2.ALPH","-","A73784","-","-","-","-116.4 - -112.0","?C","-114.0","Celsius"
"OCC(Br)(CO)[N+]([O-])=O","-","2356","2895.0","2-Bromo-2-nitropropane-1,3-diol","-","A73784","-","-","-","127.0 - 131.5","?C","129.0","Celsius"
"O=C(CCC(=O)OCC1=CC=CC=C1)OCC1=CC=CC=C1","-","7370","2896.0","DIBENZYL SUCCINATE","-","A73784","-","-","-","45.0 - 49.5","?C","47.2","Celsius"
"COC1=CC=C(C(=O)C2=CC=C(OC)C=C2O)C(O)=C1","-","8252","2897.0","2,2'-Dihydroxy-4,4'-dimethoxybenzophenone","-","A73784","-","-","-","135.0 - 139.5","?C","137.0","Celsius"
"OC(=O)C1=C(O)C(I)=CC(I)=C1","-","8310","2898.0","3,5-diiodosalicylic acid","-","A73784","-","-","-","231.0 - 235.5","?C","233.0","Celsius"
"FC1=CC=C(C=C1)C(=O)C1=CC=C(F)C=C1","-","9206","2899.0","4,4'-Difluorobenzophenone","-","A73784","-","-","-","103.5 - 108.0","?C","106.0","Celsius"
"OC(=O)C1=CC=CC=C1C1=CC=CC=C1C(O)=O","-","9795","2900.0","diphenic acid","-","A73784","-","-","-","229.0 - 233.5","?C","231.0","Celsius"
"OC(=O)C1=CC=CC=C1C1=C2C=C(Br)C(=O)C(Br)=C2OC2=C(Br)C(O)=C(Br)C=C12","-","10581","2901.0","2-(2,4,5,7-tetrabromo-6-hydroxy-3-oxo-3h-xanthen-9-yl)benzoic acid","-","A73784","-","-","-","295.5 - 300.0","?C","298.0","Celsius"
"OCCCCCCCO","-","11875","2903.0","1,7-Heptanediol","-","A73784","-","-","-","18.0 - 22.5","?C","20.2","Celsius"
"CC1(C)C2CCC(C)(C2)C1O","-","14665","2904.0","Bicyclo 2.2.1 heptan-2-ol, 1,3,3-trimethyl-, (1R","-","A73784","-","-","-","43.5 - 48.0","?C","45.8","Celsius"
"CC(=O)N1CCOCC1","-","14787","2905.0","N-ACETYLMORPHOLINE","-","A73784","-","-","-","10.0 - 14.5","?C","12.2","Celsius"
"CCCCCCCCCCCCCCCCC#C","-","62633","2906.0","1-Octadecyne","-","A73784","-","-","-","22.5 - 27.0","?C","24.8","Celsius"
"O=C1C=CC(=O)C2C3CC(C=C3)C12","-","71481","2907.0","tricyclo[6.2.1.0~2,7~]undeca-4,9-diene-3,6-dione","-","A73784","-","-","-","73.0 - 77.5","?C","75.2","Celsius"
"CCOC(=O)C(NC=O)C(=O)OCC","-","72806","2908.0","Diethyl formamidomalonate","-","A73784","-","-","-","48.5 - 53.0","?C","50.8","Celsius"
"SC1=NC=CN1","-","1013196","2909.0","2-Mercaptoimidazole","-","A73784","-","-","-","225.0 - 229.5","?C","227.0","Celsius"
"COC(=O)[C@@H]1[C@H]2CC[C@@H](C[C@@H]1OC(=O)C1=CC=CC=C1)N2C","-","10194104","2910.0","Cocaine","-","A73784","-","-","-","93.5 - 98.0","?C","95.8","Celsius"
"CC(C)(Br)C(O)=O","-","10790335","2911.0","2-Bromoisobutyric acid","-","A73784","-","-","-","44.0 - 48.5","?C","46.2","Celsius"
"OC(=O)C(Cl)Br","-","11307583","2912.0","Bromochloroacetic acid","-","A73784","-","-","-","27.0 - 31.5","?C","29.2","Celsius"
"CN(C)C1=CC=C(CC2=CC=C(C=C2)N(C)C)C=C1","-","21106506","2913.0","4,4'-Methylenebis(N,N-dimethylaniline)","-","A73784","-","-","-","87.0 - 91.5","?C","89.2","Celsius"
"CN(C)CC(O)=O","-","653","2914.0","N,N-DIMETHYLGLYCINE","-","A73784","-","-","-","181.0 - 185.5","?C","183.0","Celsius"
"OC(=O)CCCCCCCC(O)=O","-","2179","2915.0","azelaic acid","-","A73784","-","-","-","102.0 - 106.5","?C","104.0","Celsius"
"N1C2=CC=CC=C2N=C1C1=CSC=N1","-","5237","2917.0","2-(1,3-thiazol-4-yl)-1h-benzimidazole","-","A73784","-","-","","300.0","?C","300.0","Celsius"
"CC1CNC(C)CN1","-","7528","2918.0","Piperazine, 2,5-dimethyl-, cis-","-","A73784","-","-","-","114.0 - 118.5","?C","116.0","Celsius"
"NC1=C(Cl)C=C(Cl)C=C1Cl","-","11961","2919.0","2,4,6-trichloroaniline","-","A73784","-","-","-","74.0 - 78.5","?C","76.2","Celsius"
"OP(O)(=O)CCCl","-","26031","2920.0","2-Chloroethylphosphonic acid","-","A73784","-","-","-","70.0 - 74.5","?C","72.2","Celsius"
"OC1C2=CC=CC=C2OC2=CC=CC=C12","-","65693","2921.0","9H-Xanthen-9-ol","-","A73784","-","-","-","123.0 - 127.5","?C","125.0","Celsius"
"COC1=CC=C2N=CC=C([C@H](O)[C@H]3C[C@@H]4CC[N@]3C[C@@H]4C=C)C2=C1","-","389880","2922.0","quinidine","-","A73784","-","-","-","170.0 - 174.5","?C","172.0","Celsius"
"CC(C)(N)CO","-","13835861","2923.0","2-Amino-2-methylpropan-1-ol","-","A73784","-","-","-","25.5 - 30.0","?C","27.8","Celsius"
"COC1=CC=CC(OC)=C1OC","-","21111804","2924.0","1,2,3-trimethoxybenzene","-","A73784","-","-","-","44.0 - 48.5","?C","46.2","Celsius"
"OC1=CC=C(O)C=C1","-","764","2925.0","Hydroquinone","-","A73784","-","-","-","170.5 - 175.0","?C","173.0","Celsius"
"OC1=CC=CC=C1C#N","-","11413","2926.0","Salicylonitrile","-","A73784","-","-","-","93.5 - 98.0","?C","95.8","Celsius"
"OCCCl","-","21106015","2927.0","2-chloroethanol","-","A73784","-","-","-","-67.5 - -63.0","?C","-65.2","Celsius"
"CC\N=C1/N\C(NC(Cl)=N1)=N\C(C)C","-","2169","2928.0","atrazine","-","A73784","-","-","-","172.5 - 177.0","?C","175.0","Celsius"
"CC1=CC(NS(=O)(=O)C2=CC=C(N)C=C2)=NO1","-","5138","2929.0","sulfamethoxazole","-","A73784","-","-","-","167.0 - 171.5","?C","169.0","Celsius"
"OC1=CC=CC=C1I","-","10328","2930.0","2-IODOPHENOL","-","A73784","-","-","-","38.5 - 43.0","?C","40.8","Celsius"
"C1=CC2=C3C(=C1)C1=CC=CC4=C1C(=CC=C4)C3=CC=C2","-","8788","2931.0","perylene","-","A73784","-","-","-","273.5 - 278.0","?C","276.0","Celsius"
"C1C2=CC=CC=C2C2=CC=CC=C12","-","6592","2933.0","Fluorene","-","A73784","-","-","-","112.0 - 116.5","?C","114.0","Celsius"
"CC=O","-","172","2934.0","acetaldehyde","-","A73784","-","-","-","-128.0 - -123.37","?C","-126.0","Celsius"
"CC(C)(C)C(O)C(OC1=CC=C(Cl)C=C1)N1C=NC=N1","-","37749","2935.0","TRIADIMENOL","-","A73784","-","-","-","133.5 - 138.2","?C","136.0","Celsius"
"FC1=CC=C(Cl)C=C1","-","9228","2938.0","1-Chloro-4-fluorobenzene","-","A73784","-","-","-","-26.8 - -22.0","?C","-24.4","Celsius"
"OC1=CC=NC=C1","-","11787","2939.0","4-hydroxypyridine","-","A73784","-","-","-","145.0 - 149.8","?C","147.0","Celsius"
"ClCCOCCCl","-","21106016","2940.0","1-Chloro-2-(2-chloroethoxy)ethane","-","A73784","-","-","-","-51.9 - -47.0","?C","-49.5","Celsius"
"FC(F)F","-","21106179","2941.0","Fluoroform","-","A73784","-","-","-","-160.0 - -155.1","?C","-158.0","Celsius"
"OC1CCCCC1","-","7678","2942.0","cyclohexanol","-","A73784","-","-","-","21.0 - 25.93","?C","23.5","Celsius"
"OC1=C(Br)C=C(Br)C2=C1N=CC=C2","-","2359","2943.0","5,7-Dibromo-8-hydroxyquinoline","-","A73784","-","-","-","196.0 - 201.0","?C","198.0","Celsius"
"CCCC(C)C1(CC=C)C(=O)NC(=O)NC1=O","-","5005","2944.0","Secobarbital","-","A73784","-","-","-","95.0 - 100.0","?C","97.5","Celsius"
"N[C@@H](CC1=CNC=N1)C(O)=O","-","6038","2945.0","L-histidine","-","A73784","-","-","-","282.0 - 287.0","?C","284.0","Celsius"
"CC(C)(C)OO","-","6170","2946.0","TERT-BUTYL HYDROPEROXIDE","-","A73784","-","-","-","-8.0 - -3.0","?C","-5.5","Celsius"
"COS(=O)(=O)OC","-","6252","2947.0","DIMETHYL SULFATE","-","A73784","-","-","-","-32.0 - -27.0","?C","-29.5","Celsius"
"CC1=CC=C2C(=O)C3=CC=CC=C3C(=O)C2=C1","-","6515","2948.0","2-Methylanthraquinone","-","A73784","-","-","-","172.0 - 177.0","?C","174.0","Celsius"
"OC(=O)CC1=C(Cl)C(Cl)=CC=C1Cl","-","6546","2949.0","(2,3,6-Trichlorophenyl)acetic acid","-","A73784","-","-","-","156.0 - 161.0","?C","158.0","Celsius"
"ClS(=O)(=O)C1=CC2=CC=CC=C2C=C1","-","6858","2950.0","Naphthalene-2-sulfonyl chloride","-","A73784","-","-","-","76.0 - 81.0","?C","78.5","Celsius"
"OC(=O)COCC(O)=O","-","7797","2951.0","Diglycolic acid","-","A73784","-","-","-","143.0 - 148.0","?C","146.0","Celsius"
"CCCCCCCCCCCCN(C)C","-","7876","2952.0","N,N-DIMETHYLDODECYLAMINE","-","A73784","-","-","-","-20.0 - -15.0","?C","-17.5","Celsius"
"OC(=O)C1=CC(=CC=C1)C(O)=O","-","8182","2953.0","isophthalic_acid","-","A73784","-","-","-","342.0 - 347.0","?C","344.0","Celsius"
"CC(=O)NC1=CC=CC(F)=C1","-","9218","2954.0","3'-Fluoroacetanilide","-","A73784","-","-","-","83.0 - 88.0","?C","85.5","Celsius"
"O=C(CC1=CC=CC=C1)C1=CC=CC=C1","-","9554","2955.0","Deoxybenzoin","-","A73784","-","-","-","55.0 - 60.0","?C","57.5","Celsius"
"OCC1=CC2=C(OCO2)C=C1","-","9900","2956.0","3,4-(Methylenedioxy)benzyl alcohol","-","A73784","-","-","-","53.0 - 58.0","?C","55.5","Celsius"
"CC1=CC=CC=C1C(N)=O","-","10254","2957.0","o-Toluamide","-","A73784","-","-","-","142.0 - 147.0","?C","144.0","Celsius"
"OC(=O)C1=CC2=C(C=C1)C(=O)OC2=O","-","10618","2958.0","1,2,4-Benzenetricarboxylic anhydride","-","A73784","-","-","-","162.0 - 167.0","?C","164.0","Celsius"
"CC(C)C(Br)C(O)=O","-","10794","2959.0","2-Bromoisovaleric acid","-","A73784","-","-","-","39.0 - 44.0","?C","41.5","Celsius"
"NC1=CC=CC2=C1N=CC=C2","-","10881","2960.0","8-Aminoquinoline","-","A73784","-","-","-","65.0 - 70.0","?C","67.5","Celsius"
"[O-][N+](=O)C1=C2C=CC=CC2=CC2=CC=CC=C12","-","11274","2961.0","9-NITROANTHRACENE","-","A73784","-","-","-","141.0 - 146.0","?C","144.0","Celsius"
"[O-][N+](=O)C1=CC=CC2=C1C(=O)NC2=O","-","11286","2962.0","3-NITROPHTHALIMIDE","-","A73784","-","-","-","214.0 - 219.0","?C","216.0","Celsius"
"O=C1C=C(OC2=C1C=CC1=CC=CC=C21)C1=CC=CC=C1","-","11297","2963.0","2-Phenyl-4H-benzo[h]chromen-4-one","-","A73784","-","-","-","153.0 - 158.0","?C","156.0","Celsius"
"O=C1CC2=CC=CC=C2C1","-","11488","2964.0","2-INDANONE","-","A73784","-","-","-","54.0 - 59.0","?C","56.5","Celsius"
"CC1=CNC=N1","-","12640","2965.0","4-Methylimidazole","-","A73784","-","-","-","51.0 - 56.0","?C","53.5","Celsius"
"CCCCP(CCCC)CCCC","-","13231","2966.0","Tributylphosphine","-","A73784","-","-","-","-65.0 - -60.0","?C","-62.5","Celsius"
"OC1=CC2=C(CCCC2)C=C1","-","13667","2967.0","5,6,7,8-tetrahydro-2-naphthol","-","A73784","-","-","-","57.0 - 62.0","?C","59.5","Celsius"
"CC1=CC2=C(C=CC=C2)C=N1","-","13668","2968.0","3-Methylisoquinoline","-","A73784","-","-","-","63.0 - 68.0","?C","65.5","Celsius"
"ClC1=CC=C(SSC2=CC=C(Cl)C=C2)C=C1","-","13721","2969.0","BIS(4-CHLOROPHENYL) DISULFIDE","-","A73784","-","-","-","68.0 - 73.0","?C","70.5","Celsius"
"OC1=CC2=C(CCC2)C=C1","-","14390","2970.0","5-INDANOL","-","A73784","-","-","-","53.0 - 58.0","?C","55.5","Celsius"
"CC(=O)C1=CC2=C(O1)C=CC=C2","-","14690","2971.0","2-acetylbenzo[b]furan","-","A73784","-","-","-","71.0 - 76.0","?C","73.5","Celsius"
"OC1=CC2=C(C=C1)C1(OC(=O)C3=CC=CC=C13)C1=CC=C(O)C=C1O2","-","15968","2972.0","fluorescein","-","A73784","-","-","-","315.0 - 320.0","?C","318.0","Celsius"
"CC1OC1C","-","17595","2973.0","OXIRANE, 2,3-DIMETHYL-, TRANS-","-","A73784","-","-","-","-85.0 - -80.0","?C","-82.5","Celsius"
"OC(=O)C1=CC=C(CBr)C=C1","-","21185","2974.0","4-(BROMOMETHYL)BENZOIC ACID","-","A73784","-","-","-","225.0 - 230.0","?C","228.0","Celsius"
"OC(=O)COC1=CC=C(Cl)C=C1","-","24438","2975.0","4-chlorophenoxyacetic acid","-","A73784","-","-","-","159.0 - 164.0","?C","162.0","Celsius"
"NC1=C2C(=O)C3=CC=CC=C3C(=O)C2=C(N)C=C1","-","29150","2976.0","1,4-Diaminoanthraquinone","-","A73784","-","-","-","263.0 - 268.0","?C","266.0","Celsius"
"CC1=CC(C)=C(Br)C(C)=C1NC(=O)CN(CC(O)=O)CC(O)=O","-","48922","2977.0","(3-bromo-2,4,6-trimethylphenylcarbamoyl)methyliminodiacetic acid","-","A73784","-","-","-","194.0 - 199.0","?C","196.0","Celsius"
"ClC(=O)CCC1=CC=CC=C1","-","58333","2978.0","3-Phenylpropionyl chloride","-","A73784","-","-","-","-7.0 - -2.0","?C","-4.5","Celsius"
"CC1(C)N(CO)C(=O)NC1=O","-","60357","2979.0","1-Hydroxymethyl-5,5-dimethylhydantoin","-","A73784","-","-","-","100.0 - 105.0","?C","102.0","Celsius"
"C1CN2CCCC3=C2C(C1)=CC=C3","-","61383","2980.0","Julolidine","-","A73784","-","-","-","35.0 - 40.0","?C","37.5","Celsius"
"FC1=C(F)C(=O)C(F)=C(F)C1=O","-","61540","2981.0","2,3,5,6-tetrafluoro-1,4-benzoquinone","-","A73784","-","-","-","179.0 - 184.0","?C","182.0","Celsius"
"NC1=NC=NC=C1","-","62181","2982.0","4-Aminopyrimidine","-","A73784","-","-","-","150.0 - 155.0","?C","152.0","Celsius"
"CCNC(=O)C(=O)NCC","-","62423","2983.0","N,N'-Diethyloxamide","-","A73784","-","-","-","175.0 - 180.0","?C","178.0","Celsius"
"BrC1=CC(=CC=C1)C(=O)C1=CC=CC=C1","-","63718","2984.0","3-brombenzophenone","-","A73784","-","-","-","76.0 - 81.0","?C","78.5","Celsius"
"CN1C(=O)CCC1=O","-","63882","2985.0","N-METHYLSUCCINIMIDE","-","A73784","-","-","-","66.0 - 71.0","?C","68.5","Celsius"
"OC(=O)CCCCCC1=CC=CC=C1","-","71995","2986.0","6-Phenylhexanoic acid","-","A73784","-","-","-","18.0 - 23.0","?C","20.5","Celsius"
"CC1=CC(N)=C2C=CC=CC2=N1","-","73183","2987.0","4-Amino-2-methylquinoline","-","A73784","-","-","-","164.0 - 169.0","?C","166.0","Celsius"
"COC1=CC=C(OC)C(C)=C1","-","81759","2988.0","2,5-Dimethoxytoluene","-","A73784","-","-","-","15.0 - 20.0","?C","17.5","Celsius"
"CO[C@@H]1O[C@H](CO)[C@H](O)[C@H](O)[C@H]1O","-","85024","2989.0","Methyl beta-D-galactopyranoside","-","A73784","-","-","-","172.0 - 177.0","?C","174.0","Celsius"
"ClC(Cl)(Cl)OC(=O)OC(Cl)(Cl)Cl","-","85216","2990.0","Triphosgene","-","A73784","-","-","-","79.0 - 84.0","?C","81.5","Celsius"
"IC1=CC=C(CC#N)C=C1","-","126037","2991.0","4-iodophenylacetonitrile","-","A73784","-","-","-","48.0 - 53.0","?C","50.5","Celsius"
"O[C@@H]([C@H](O)C(O)=O)C(O)=O","-","388726","2992.0","(2S,3S)-2,3-Dihydroxysuccinic acid","-","A73784","-","-","-","168.0 - 173.0","?C","170.0","Celsius"
"COC(=O)CS(=O)(=O)C1=CC=CC=C1","-","483123","2993.0","Methyl phenylsulfonylacetate","-","A73784","-","-","-","30.0 - 35.0","?C","32.5","Celsius"
"NC(=O)C1=CC=C(C=C1)C1=CC=CC=C1","-","523754","2994.0","biphenyl-4-carboxamide","-","A73784","-","-","-","223.0 - 228.0","?C","226.0","Celsius"
"NC(=S)NC1=CC=CC=C1","-","589165","2995.0","1-phenylthiourea","-","A73784","-","-","-","149.0 - 154.0","?C","152.0","Celsius"