"SMILES","CASRN","EXTERNALID","N","NAME","NAME","ARTICLEID","PUBMEDID","PAGE","TABLE","Melting Point {measured}","UNIT {Melting Point}","Melting Point {measured, converted}","UNIT {Melting Point}"
"NNC(=O)NN","-","66578","2689.0","Carbonohydrazide","-","A73784","-","-","-","154.0 - 157.5","?C","156.0","Celsius"
"FC(F)(F)C1=CC=C(CC#N)C=C1","-","67895","2690.0","4-(Trifluoromethyl)phenylacetonitrile","-","A73784","-","-","-","45.0 - 48.5","?C","46.8","Celsius"
"NCCCCCO","-","68156","2691.0","5-Amino-1-pentanol","-","A73784","-","-","-","35.0 - 38.5","?C","36.8","Celsius"
"[O-][N+](=O)C1=CC(Br)=CC=C1Br","-","69450","2692.0","2,5-Dibromonitrobenzene","-","A73784","-","-","-","82.0 - 85.5","?C","83.8","Celsius"
"CC(N)=S","-","2006126","2693.0","Ethanethioamide","-","A73784","-","-","-","112.0 - 115.5","?C","114.0","Celsius"
"C[C@H](O)CN","-","5641722","2694.0","(2s)-1-amino-2-propanol","-","A73784","-","-","-","21.5 - 25.0","?C","23.2","Celsius"
"OC1=CC=CC=C1C=NC1=CC=CC=C1","-","10237273","2695.0","Salicylideneaniline","-","A73784","-","-","-","47.5 - 51.0","?C","49.2","Celsius"
"OC(=O)C1=CC=CO1","-","10251740","2696.0","2-furoic acid","-","A73784","-","-","-","130.0 - 133.5","?C","132.0","Celsius"
"COC1=CC=C(Br)C=C1","-","13881571","2697.0","p-Bromoanisole","-","A73784","-","-","-","10.0 - 13.5","?C","11.8","Celsius"
"NC1=CC=C(C=C1[N+]([O-])=O)[N+]([O-])=O","-","7045","2699.0","2,4-Dinitroaniline","-","A73784","-","-","-","176.5 - 180.0","?C","178.0","Celsius"
"BrCCCCBr","-","7765","2700.0","1,4-DIBROMOBUTANE","-","A73784","-","-","-","-20.0 - -16.5","?C","-18.2","Celsius"
"OC(=O)CC1=CC=C(Cl)C=C1","-","15093","2701.0","4-chlorophenylacetic_acid","-","A73784","-","-","-","103.0 - 106.5","?C","105.0","Celsius"
"OC(=O)C1=CC(Cl)=CC=C1Cl","-","10801689","2702.0","2,5-DICHLOROBENZOIC ACID","-","A73784","-","-","-","152.5 - 156.0","?C","154.0","Celsius"
"COC(=O)C1=CC=CC=C1C(=O)OC","-","13837329","2703.0","dimethyl phthalate","-","A73784","-","-","-","2.0 - 5.5","?C","3.75","Celsius"
"CC1=CC(N)=C(C)C=C1","-","13869434","2704.0","2,5-Dimethylaniline","-","A73784","-","-","-","12.0 - 15.5","?C","13.8","Celsius"
"CC1=CC=C(Br)C=C1","-","13875258","2705.0","1-Bromo-4-methylbenzene","-","A73784","-","-","-","25.0 - 28.5","?C","26.8","Celsius"
"COC1=CC=CC(C=O)=C1O","-","21105848","2706.0","2-Hydroxy-3-methoxybenzaldehyde","-","A73784","-","-","-","41.0 - 44.5","?C","42.8","Celsius"
"[O-][N+](=O)C1=CC=C(Cl)C=C1Cl","-","21106035","2707.0","2,4-Dichloro-1-nitrobenzene","-","A73784","-","-","-","30.5 - 34.0","?C","32.2","Celsius"
"OC1=C(Cl)C=C(Cl)C(Cl)=C1","-","7001","2708.0","2,4,5-trichlorophenol","-","A73784","-","-","-","65.5 - 69.0","?C","67.2","Celsius"
"OC1=CC=C(F)C=C1","-","9350","2709.0","4-fluorophenol","-","A73784","-","-","-","44.5 - 48.0","?C","46.2","Celsius"
"CC1=C2C=CC=CC2=CC2=CC=CC=C12","-","12524","2710.0","9-methylanthracene","-","A73784","-","-","-","78.0 - 81.5","?C","79.8","Celsius"
"C[C@]12CC(=O)[C@H]3[C@@H](CCC4=CC(=O)CC[C@]34C)[C@@H]1CC[C@]2(O)C(=O)CO","-","193441","2711.0","Cortisone","-","A73784","-","-","-","222.0 - 225.5","?C","224.0","Celsius"
"CC1=CC=CC(O)=C1C","-","13839151","2712.0","2,3-DIMETHYLPHENOL","-","A73784","-","-","-","71.5 - 75.0","?C","73.2","Celsius"
"ClC1=CC(Cl)=C(Cl)C(Cl)=C1","-","21106571","2713.0","1,2,3,5-tetrachlorobenzene","-","A73784","-","-","-","51.5 - 55.0","?C","53.2","Celsius"
"NC(=O)C1=CC=CC=C1","-","2241","2714.0","benzamide","-","A73784","-","-","-","126.5 - 130.0","?C","128.0","Celsius"
"CC1=C(C)C(C)=C(C)C(C)=C1C","-","6642","2716.0","hexamethylbenzene","-","A73784","-","-","-","164.0 - 167.5","?C","166.0","Celsius"
"COC(=O)C1=CC=C(N)C=C1","-","11585","2717.0","Methyl 4-aminobenzoate","-","A73784","-","-","-","110.5 - 114.0","?C","112.0","Celsius"
"OC1=C(Cl)C=CC=C1Cl","-","6633","2718.0","2,6-Dichlorophenol","-","A73784","-","-","-","65.0 - 68.5","?C","66.8","Celsius"
"CCOC1=CC=C(NC(C)=O)C=C1","-","4590","2719.0","phenacetin","-","A73784","-","-","-","134.0 - 137.5","?C","136.0","Celsius"
"CCCCOC(=O)C1=CC=C(O)C=C1","-","6916","2720.0","Butyl 4-hydroxybenzoate","-","A73784","-","-","-","68.5 - 72.0","?C","70.2","Celsius"
"OCCN1CCOCC1","-","55110","2721.0","4-(2-Hydroxyethyl)morpholine","-","A73784","-","-","-","-1.6 - 2.0","?C","0.2","Celsius"
"CC(C)C1CCC(C)CC1","-","7179","2722.0","Cyclohexane, 1-methyl-4-(1-methylethyl)-, cis-","-","A73784","-","-","-","-89.9 - -86.3","?C","-88.1","Celsius"
"OC(=O)CCCCCCCCC(O)=O","-","5004","2723.0","sebacic acid","-","A73784","-","-","-","130.8 - 134.5","?C","133.0","Celsius"
"OC1=CC(F)=CC=C1","-","9360","2724.0","3-fluorophenol","-","A73784","-","-","-","10.0 - 13.7","?C","11.8","Celsius"
"CCC(C)(CO)CO","-","59556","2725.0","2-Ethyl-2-methyl-1,3-propanediol","-","A73784","-","-","-","40.3 - 44.0","?C","42.1","Celsius"
"CC(C)CC(O)=O","-","10001","2726.0","ISOVALERIC ACID","-","A73784","-","-","-","-33.0 - -29.3","?C","-31.1","Celsius"
"OC1CCCC1","-","7026","2727.0","CYCLOPENTANOL","-","A73784","-","-","-","-20.0 - -16.25","?C","-18.1","Celsius"
"C[C@]12CC[C@H]3[C@@H](CCC4=C3C=CC(O)=C4)[C@@H]1CCC2=O","-","5660","2728.0","estrone","-","A73784","-","-","-","255.25 - 259.0","?C","257.0","Celsius"
"FC(F)(F)CC(F)(F)F","-","12199","2729.0","1,1,1,3,3,3-Hexafluoropropane","-","A73784","-","-","-","-98.0 - -94.2","?C","-96.1","Celsius"
"COC(=O)C1=CC=C(C)C=C1","-","7175","2730.0","methyl_4-methylbenzoate","-","A73784","-","-","-","33.2 - 37.0","?C","35.1","Celsius"
"COC1=CC=CC=C1CC#N","-","73531","2731.0","o-methoxy_phenylacetonitrile","-","A73784","-","-","-","66.0 - 69.8","?C","67.9","Celsius"
"NC1=CC=C2C=C3C=CC=CC3=CC2=C1","-","11443","2732.0","anthracen-2-amine","-","A73784","-","-","-","235.0 - 238.8","?C","237.0","Celsius"
"ClC1=C(Cl)C(Cl)=C(Cl)C(Cl)=C1Cl","-","8067","2733.0","hexachlorobenzene","-","A73784","-","-","-","228.0 - 231.8","?C","230.0","Celsius"
"[O-][N+](=O)NC1=NCCN1CC1=CN=C(Cl)C=C1","-","77934","2734.0","Imidacloprid","-","A73784","-","-","-","140.1 - 144.0","?C","142.0","Celsius"
"CCCCCCCC(=O)OCC","-","7511","2735.0","ethyl_octanoate","-","A73784","-","-","-","-47.0 - -43.1","?C","-45.0","Celsius"
"FC(C(F)(F)F)C(F)(F)F","-","61257","2736.0","1,1,1,2,3,3,3-Heptafluoropropane","-","A73784","-","-","-","-131.0 - -127.1","?C","-129.0","Celsius"
"C1=CC=C(C=C1)C1=CC=C(C=C1)C1=CC=CC=C1","-","6848","2737.0","1,1':4',1''-TERPHENYL","-","A73784","-","-","-","210.1 - 214.0","?C","212.0","Celsius"
"OC1=CC=C(Br)C=C1","-","13842573","2738.0","p-Bromophenol","-","A73784","-","-","-","62.5 - 66.4","?C","64.5","Celsius"
"NCCC(O)=O","-","234","2739.0","BETA-ALANINE","-","A73784","-","-","-","196.0 - 200.0","?C","198.0","Celsius"
"CCCC(N)C(O)=O","-","801","2740.0","DL-Norvaline","-","A73784","-","-","-","303.0 - 307.0","?C","305.0","Celsius"
"NCCC1=CNC2=CC=CC=C12","-","1118","2741.0","tryptamine","-","A73784","-","-","-","114.0 - 118.0","?C","116.0","Celsius"
"COC1=CC=C(NC(C)=O)C=C1","-","5622","2743.0","4'-Methoxyacetanilide","-","A73784","-","-","-","127.0 - 131.0","?C","129.0","Celsius"
"CCCCC(CC)COP(=O)(OCC(CC)CCCC)OCC(CC)CCCC","-","6289","2744.0","TRIS(2-ETHYLHEXYL) PHOSPHATE","-","A73784","-","-","-","-74.0 - -70.0","?C","-72.0","Celsius"
"O=C1NC(=O)C2=CC=CC=C12","-","6550","2745.0","phthalimide","-","A73784","-","-","-","234.0 - 238.0","?C","236.0","Celsius"
"CN(C)C1=CC=C(C=C1)C(=O)C1=CC=C(C=C1)N(C)C","-","6764","2746.0","Michler's ketone","-","A73784","-","-","-","175.0 - 179.0","?C","177.0","Celsius"
"CCN(CC)C1=CC=C2C(C)=CC(=O)OC2=C1","-","6783","2747.0","7-(Diethylamino)-4-methyl-2H-chromen-2-one","-","A73784","-","-","-","70.0 - 74.0","?C","72.0","Celsius"
"OC(=O)C1=CC2=C(OCO2)C=C1","-","6928","2748.0","PIPERONYLIC ACID","-","A73784","-","-","-","229.0 - 233.0","?C","231.0","Celsius"
"CC1=CC(=CC(C)=C1)C(C)(C)C","-","7100","2749.0","5-tert-Butyl-m-xylene","-","A73784","-","-","-","-22.0 - -18.0","?C","-20.0","Celsius"
"OC1=CC=C(NCC2=CC=CC=C2)C=C1","-","7355","2750.0","4-(Benzylamino)phenol","-","A73784","-","-","-","84.0 - 88.0","?C","86.0","Celsius"
"C1CCNCC1","-","7791","2751.0","piperidine","-","A73784","-","-","-","-11.0 - -7.0","?C","-9.0","Celsius"
"ClC1=C(Cl)C2(Cl)C3C(C(=O)OC3=O)C1(Cl)C2(Cl)Cl","-","7967","2752.0","Chlorendic Anhydride","-","A73784","-","-","-","233.0 - 237.0","?C","235.0","Celsius"
"NC1=NC2=CC=CC=C2S1","-","8382","2753.0","2-AMINOBENZOTHIAZOLE","-","A73784","-","-","-","128.0 - 132.0","?C","130.0","Celsius"
"C1=CC2=C(C=C1)C1=CC3=C(C=CC=C3)C3=C1C2=CC=C3","-","8799","2754.0","benzo[e]acephenanthrylene","-","A73784","-","-","-","164.0 - 168.0","?C","166.0","Celsius"
"NNC(=O)NC1=CC=CC=C1","-","10380","2755.0","4-phenylsemicarbazide","-","A73784","-","-","-","124.0 - 128.0","?C","126.0","Celsius"
"CC(C)C(C)(C)O","-","11180","2756.0","2,3-dimethyl-2-butanol","-","A73784","-","-","-","-14.0 - -10.0","?C","-12.0","Celsius"
"ClCC1=CC=CC=C1Cl","-","11412","2757.0","2-Chlorobenzyl chloride","-","A73784","-","-","-","-17.0 - -13.0","?C","-15.0","Celsius"
"OC1=CC=C(C=C1Cl)[N+]([O-])=O","-","11577","2758.0","2-chloro-4-nitrophenol","-","A73784","-","-","-","106.0 - 110.0","?C","108.0","Celsius"
"OC1=C(C=O)C2=CC=CC=C2C=C1","-","12291","2759.0","2-Hydroxy-1-naphthaldehyde","-","A73784","-","-","-","79.0 - 83.0","?C","81.0","Celsius"
"CC1=CC=C(C=C1)P(C1=CC=C(C)C=C1)C1=CC=C(C)C=C1","-","13352","2760.0","Tri(p-tolyl)phosphine","-","A73784","-","-","-","145.0 - 149.0","?C","147.0","Celsius"
"NC1=CC=C(C=C1C(=O)C1=CC=CC=C1)[N+]([O-])=O","-","14916","2761.0","2-Amino-5-nitrobenzophenone","-","A73784","-","-","-","163.0 - 167.0","?C","165.0","Celsius"
"OCC1=CC(OC2=CC=CC=C2)=CC=C1","-","24499","2762.0","(3-Phenoxyphenyl)methanol","-","A73784","-","-","-","6.0 - 10.0","?C","8.0","Celsius"
"OCC(CO)(CO)COCC(CO)(CO)CO","-","29085","2763.0","Dipentaerythritol","-","A73784","-","-","-","217.0 - 221.0","?C","219.0","Celsius"
"OC(=O)CC=C","-","30349","2764.0","Vinylacetic acid","-","A73784","-","-","-","-39.0 - -35.0","?C","-37.0","Celsius"
"OC1=C(C=O)C=C(C=C1)[N+]([O-])=O","-","60173","2765.0","2-Hydroxy-5-nitrobenzaldehyde","-","A73784","-","-","-","125.0 - 129.0","?C","127.0","Celsius"
"OC(=O)C(F)(F)C(F)(F)C(O)=O","-","61150","2766.0","Tetrafluorosuccinic acid","-","A73784","-","-","-","115.0 - 119.0","?C","117.0","Celsius"
"CC(=O)N[C@@H](CC1=CC=C(O)C=C1)C(O)=O","-","61606","2767.0","N-ACETYL-L-TYROSINE","-","A73784","-","-","-","149.0 - 153.0","?C","151.0","Celsius"
"OC(=O)C1=CC(O)=C(C=C1)[N+]([O-])=O","-","62477","2768.0","3-HYDROXY-4-NITROBENZOIC ACID","-","A73784","-","-","-","230.0 - 234.0","?C","232.0","Celsius"
"[O-][N+](=O)C1=CC=C(OC(=O)C2=CC=CC=C2)C=C1","-","63575","2769.0","4-Nitrophenyl benzoate","-","A73784","-","-","-","139.0 - 143.0","?C","141.0","Celsius"
"O=C1CCCCCCCCC1","-","66551","2770.0","CYCLODECANONE","-","A73784","-","-","-","24.0 - 28.0","?C","26.0","Celsius"
"CC1=CC(C)=C(C)C(Br)=C1C","-","66847","2771.0","1-Bromo-2,3,5,6-tetramethylbenzene","-","A73784","-","-","-","56.0 - 60.0","?C","58.0","Celsius"
"OCC1=C(O)C=CC(Br)=C1","-","67879","2772.0","5-Bromo-2-hydroxybenzyl alcohol","-","A73784","-","-","-","109.0 - 113.0","?C","111.0","Celsius"
"COC1=CC=CC=C1C(=O)C1=CC=CC=C1","-","68220","2773.0","2-Methoxybenzophenone","-","A73784","-","-","-","37.0 - 41.0","?C","39.0","Celsius"
"COC(=O)C1=CC(Cl)=CC=C1O","-","70085","2774.0","Methyl 5-chloro-2-hydroxybenzoate","-","A73784","-","-","-","46.0 - 50.0","?C","48.0","Celsius"
"CCN(C(C)C)C(C)C","-","73565","2775.0","N-ethyl-N-isopropylpropan-2-amine","-","A73784","-","-","-","-50.0 - -46.0","?C","-48.0","Celsius"
"C[Si](C)(C)C#C[Si](C)(C)C","-","76286","2776.0","Bis(trimethylsilyl)acetylene","-","A73784","-","-","-","22.0 - 26.0","?C","24.0","Celsius"
"OC1=CC2=C(C=C1)C=C(O)C=C2","-","84452","2777.0","2,6-Dihydroxynaphthalene","-","A73784","-","-","-","220.0 - 224.0","?C","222.0","Celsius"
"N(\C=N\C1=CC=CC=C1)C1=CC=CC=C1","-","85615","2778.0","N,N'-Diphenylformamidine","-","A73784","-","-","-","138.0 - 142.0","?C","140.0","Celsius"
"CCOC(=O)C(O)(C1=CC=CC=C1)C1=CC=CC=C1","-","86894","2779.0","Ethyl benzilate","-","A73784","-","-","-","30.0 - 34.0","?C","32.0","Celsius"
"O=CC1=CC=CC=C1C#N","-","91446","2780.0","2-Cyanobenzaldehyde","-","A73784","-","-","-","104.0 - 108.0","?C","106.0","Celsius"
"O[C@@H]([C@@H]1C[C@@H]2CC[N@]1C[C@@H]2C=C)C1=C2C=CC=CC2=NC=C1","-","91930","2781.0","(8alpha,9R)-Cinchonan-9-ol","-","A73784","-","-","-","200.0 - 204.0","?C","202.0","Celsius"
"OC(=O)CC1=CC=C(C=C1)C(F)(F)F","-","105768","2782.0","4-(Trifluoromethyl)phenylacetic acid","-","A73784","-","-","-","80.0 - 84.0","?C","82.0","Celsius"
"OC(=O)\C=C\C1=CC=CC=C1C(F)(F)F","-","628106","2783.0","2-(Trifluoromethyl)cinnamic acid","-","A73784","-","-","-","202.0 - 206.0","?C","204.0","Celsius"
"CC12CCC3C(CCC4CC(CCC34C)OCC3=CC=CC=C3)C1CCC2=O","-","2029577","2784.0","3-(benzyloxy)androstan-17-one","-","A73784","-","-","-","216.0 - 220.0","?C","218.0","Celsius"
"O=C(OCC1=CC=CC=C1)\C=C\C1=CC=CC=C1","-","4437893","2785.0","Benzyl cinnamate","-","A73784","-","-","-","35.0 - 39.0","?C","37.0","Celsius"
"COC1=CC=C(C=C1)C1=CC(=O)C2=C(O)C(OC)=C(O)C=C2O1","-","4478521","2786.0","5,7-Dihydroxy-6-methoxy-2-(4-methoxyphenyl)-4H-chromen-4-one","-","A73784","-","-","-","221.0 - 225.0","?C","223.0","Celsius"
"NC1=CC=C(C=CC2=CC=C(C=C2)[N+]([O-])=O)C(=C1)[N+]([O-])=O","-","4644742","2787.0","3-nitro-4-[(e)-2-(4-nitrophenyl)ethenyl]aniline","-","A73784","-","-","-","198.0 - 202.0","?C","200.0","Celsius"
"OC[C@@H](O)[C@H]1O[C@@H]2O[C@@H](O[C@@H]2[C@H]1O)C(Cl)(Cl)Cl","-","5414376","2788.0","1,2-O-[(1R)-2,2,2-trichloroethylidene]-alpha-D-glucofuranose","-","A73784","-","-","-","183.0 - 187.0","?C","185.0","Celsius"
"FC(F)(F)C(=O)C(F)(F)F","-","13846015","2789.0","1,1,1,3,3,3-Hexafluoroacetone","-","A73784","-","-","-","-129.0 - -125.0","?C","-127.0","Celsius"
"CC1=CC=CC=C1CCl","-","21106134","2790.0","1-(Chloromethyl)-2-methylbenzene","-","A73784","-","-","-","-2.0 - 2.0","?C","0.0","Celsius"
"OC1=CC=C(NC2=CC=CC=C2)C=C1","-","21111849","2791.0","4-Hydroxydiphenylamine","-","A73784","-","-","-","69.0 - 73.0","?C","71.0","Celsius"
"CC1=CC=NC(C)=C1","-","21132380","2792.0","2,4-Lutidine","-","A73784","-","-","-","-64.0 - -60.0","?C","-62.0","Celsius"
"CCN(CC)C1=CC=C(Br)C=C1","-","21159579","2793.0","4-Bromo-N,N-diethylaniline","-","A73784","-","-","-","34.0 - 38.0","?C","36.0","Celsius"
"CC(C)(C)CO","-","6164","2795.0","Neopentyl Alcohol","-","A73784","-","-","-","50.0 - 54.0","?C","52.0","Celsius"
"CCC(C)(C)O","-","6165","2796.0","2-METHYL-2-BUTANOL","-","A73784","-","-","-","-12.0 - -8.0","?C","-10.0","Celsius"
"ClC1=CC=CC2=C1C(=O)C1=CC=CC=C1C2=O","-","6453","2797.0","1-CHLOROANTHRAQUINONE","-","A73784","-","-","-","159.0 - 163.0","?C","161.0","Celsius"
"NC1=CC=CC2=C1C(=O)C1=CC=CC=C1C2=O","-","6454","2798.0","1-Amino-9,10-anthraquinone","-","A73784","-","-","-","250.0 - 254.0","?C","252.0","Celsius"
"CC(C)C1=CC(Cl)=C(C)C=C1O","-","6716","2799.0","4-chloro-2-isopropyl-5-methylphenol","-","A73784","-","-","-","59.0 - 63.0","?C","61.0","Celsius"
"CC1=CC=CC=C1CO","-","6728","2800.0","2-methylbenzyl_alcohol","-","A73784","-","-","-","35.0 - 39.0","?C","37.0","Celsius"
"O=C1CCN(N1)C1=CC=CC=C1","-","6823","2801.0","1-phenylpyrazolidin-3-one","-","A73784","-","-","-","122.0 - 126.0","?C","124.0","Celsius"
"CN(C)C1=CC=CC(O)=C1","-","7143","2802.0","3-(Dimethylamino)phenol","-","A73784","-","-","-","82.0 - 86.0","?C","84.0","Celsius"
"CC1=CC(=CC(C)=C1)[N+]([O-])=O","-","7148","2803.0","5-nitro-1,3-dimethylbenzene","-","A73784","-","-","-","71.0 - 75.0","?C","73.0","Celsius"
"O=C(OC1=CC=CC=C1)OC1=CC=CC=C1","-","7315","2804.0","DIPHENYL CARBONATE","-","A73784","-","-","-","79.0 - 83.0","?C","81.0","Celsius"
"CC(C)CC(C)C","-","7619","2805.0","2,4-dimethylpentane","-","A73784","-","-","-","-123.0 - -119.0","?C","-121.0","Celsius"
"CCCCCCCCCCC=O","-","7894","2806.0","UNDECANAL","-","A73784","-","-","-","-4.0 - 0.0","?C","-2.0","Celsius"
"ClC(=O)C1=CC=C(Cl)C=C1","-","8187","2807.0","4-CHLOROBENZOYL CHLORIDE","-","A73784","-","-","-","12.0 - 16.0","?C","14.0","Celsius"
"C1CCOCC1","-","8554","2808.0","tetrahydropyran","-","A73784","-","-","-","-49.0 - -45.0","?C","-47.0","Celsius"
"CCCCCCCCCCN","-","8576","2809.0","decan-1-amine","-","A73784","-","-","-","13.0 - 17.0","?C","15.0","Celsius"
"OC(=O)C(S)C(S)C(O)=O","-","8988","2810.0","2,3-disulfanylsuccinic acid","-","A73784","-","-","-","193.0 - 197.0","?C","195.0","Celsius"
"OC1=C(I)C=C(C=C1I)[N+]([O-])=O","-","9002","2811.0","2,6-Diiodo-4-nitrophenol","-","A73784","-","-","-","153.0 - 157.0","?C","155.0","Celsius"
"FC1=C2C=CC=CC2=CC=C1","-","9078","2812.0","1-FLUORONAPHTHALENE","-","A73784","-","-","-","-13.0 - -9.0","?C","-11.0","Celsius"
"CC(C)(C)Br","-","10053","2813.0","tert-Butyl bromide","-","A73784","-","-","-","-20.0 - -16.0","?C","-18.0","Celsius"
"CN=C=S","-","10694","2815.0","Isothiocyanatomethane","-","A73784","-","-","-","32.0 - 36.0","?C","34.0","Celsius"
"CC(C)(C)C1=CC=CC(O)=C1","-","10966","2816.0","3-tert-butylphenol","-","A73784","-","-","-","41.0 - 45.0","?C","43.0","Celsius"
"CC(=O)CCC(O)=O","-","11091","2817.0","LEVULINIC ACID","-","A73784","-","-","-","29.0 - 33.0","?C","31.0","Celsius"
"CCCCCC(C)C","-","11106","2818.0","2-Methylheptane","-","A73784","-","-","-","-109.0 - -105.0","?C","-107.0","Celsius"
"OC1=C(Br)C(Br)=C(Br)C(Br)=C1Br","-","11359","2819.0","pentabromophenol","-","A73784","-","-","-","226.0 - 230.0","?C","228.0","Celsius"
"CC(C)(O)C1=CC=CC=C1","-","11556","2820.0","2-Phenyl-2-propanol","-","A73784","-","-","-","32.0 - 36.0","?C","34.0","Celsius"
"[O-][N+](=O)C1=CC=C(C=C1)C#N","-","11593","2821.0","P-NITROBENZONITRILE","-","A73784","-","-","-","145.0 - 149.0","?C","147.0","Celsius"
"CC1=CC(=CC=C1)C#N","-","11607","2822.0","m-Tolunitrile","-","A73784","-","-","-","-27.0 - -23.0","?C","-25.0","Celsius"
"OC1=CC=C(OC2=CC=CC=C2)C=C1","-","12696","2823.0","4-phenoxyphenol","-","A73784","-","-","-","80.0 - 84.0","?C","82.0","Celsius"
"CC(=O)C1=CC=CO1","-","13849","2824.0","1-(2-Furyl)ethanone","-","A73784","-","-","-","29.0 - 33.0","?C","31.0","Celsius"
"CC1=CC(Cl)=CC=C1O","-","14165","2825.0","4-chloro-2-methylphenol","-","A73784","-","-","-","47.0 - 51.0","?C","49.0","Celsius"
"N#CC1=CC=C(C=C1)C1=CC=C(C=C1)C#N","-","14584","2826.0","biphenyl-4,4'-dicarbonitrile","-","A73784","-","-","-","234.0 - 238.0","?C","236.0","Celsius"
"OC(=O)C1=CC=CC(=C1)C#N","-","15088","2827.0","3-cyanobenzoic_acid","-","A73784","-","-","-","219.0 - 223.0","?C","221.0","Celsius"
"CC1(C)OC(=O)CC(=O)O1","-","15418","2828.0","Isopropylidene malonate","-","A73784","-","-","-","94.0 - 98.0","?C","96.0","Celsius"
"CC1=CC=C(C=C1)C(N)=O","-","62485","2829.0","p-Toluamide","-","A73784","-","-","-","159.0 - 163.0","?C","161.0","Celsius"
"CC1=CC(Cl)=NC2=C1C=CC=C2","-","62656","2830.0","2-Chloro-4-methylquinoline","-","A73784","-","-","-","55.0 - 59.0","?C","57.0","Celsius"
"CC(=O)OC1=CC=C(OC(C)=O)C=C1","-","64166","2831.0","1,4-Diacetoxybenzene","-","A73784","-","-","-","121.0 - 125.0","?C","123.0","Celsius"
"NC1=CC=CC=C1C#N","-","65745","2832.0","2-Aminobenzonitrile","-","A73784","-","-","-","47.0 - 51.0","?C","49.0","Celsius"
"CC(=O)NC1=CC=C(C=O)C=C1","-","66572","2833.0","4-Acetamidobenzaldehyde","-","A73784","-","-","-","156.0 - 160.0","?C","158.0","Celsius"
"CCCCCCCCC(=O)CC","-","67735","2834.0","3-UNDECANONE","-","A73784","-","-","-","9.0 - 13.0","?C","11.0","Celsius"
"COC1=CC=C(C=NC2=CC=CC=C2)C=C1","-","89076","2835.0","N-(4-Methoxybenzylidene)aniline","-","A73784","-","-","-","61.0 - 65.0","?C","63.0","Celsius"
"CN(C)C1=CC=C(\C=N\C2=CC=CC=C2)C=C1","-","204209","2836.0","N-(4-Dimethylaminobenzylidene)aniline","-","A73784","-","-","-","96.0 - 100.0","?C","98.0","Celsius"
"C1CCCC=CCC1","-","553642","2837.0","Cyclooctene","-","A73784","-","-","-","-16.0 - -12.0","?C","-14.0","Celsius"
"COC1=CC=C(\C=C\C(=O)C2=CC=CC=C2)C=C1","-","557051","2838.0","4-Methoxychalcone","-","A73784","-","-","-","75.0 - 79.0","?C","77.0","Celsius"
"C1CNCCN1","-","13835459","2839.0","Piperazine, anhydrous","-","A73784","-","-","-","106.0 - 110.0","?C","108.0","Celsius"