"SMILES","CASRN","EXTERNALID","N","NAME","NAME","ARTICLEID","PUBMEDID","PAGE","TABLE","Melting Point {measured}","UNIT {Melting Point}","Melting Point {measured, converted}","UNIT {Melting Point}"
"CN1N=NN=C1S","-","2005963","2996.0","5-Mercapto-1-methyltetrazole","-","A73784","-","-","-","122.0 - 127.0","?C","124.0","Celsius"
"O=C(C=C1CC2=CC=CC=C12)C1=CC=CC=C1","-","4645230","2997.0","(2E)-2-bicyclo[4.2.0]octa-1,3,5-trien-7-ylidene-1-phenylethanone","-","A73784","-","-","-","50.0 - 55.0","?C","52.5","Celsius"
"CCOC(=O)C1=CC=CC(=C1)[N+]([O-])=O","-","21106111","2998.0","Ethyl 3-nitrobenzoate","-","A73784","-","-","-","42.0 - 47.0","?C","44.5","Celsius"
"NC(CC(O)=O)C(O)=O","-","411","2999.0","ASPARTIC ACID","-","A73784","-","-","-","270.0 - 275.0","?C","272.0","Celsius"
"ClC1=CC2=C(C=C1)N(C1CCN(CCCN3C(=O)NC4=CC=CC=C34)CC1)C(=O)N2","-","3039","3000.0","5-chloro-1-{1-[3-(2-oxo-2,3-dihydro-1H-benzimidazol-1-yl)propyl]piperidin-4-yl}-1,3-dihydro-2H-benzimidazol-2-one","-","A73784","-","-","-","237.5 - 242.5","?C","240.0","Celsius"
"CCC1(C(C)C)C(=O)NC(=O)NC1=O","-","6213","3001.0","probarbital","-","A73784","-","-","-","198.0 - 203.0","?C","200.0","Celsius"
"OC(=O)CC1=CC=CC2=CC=CC=C12","-","6601","3002.0","1-Naphthylacetic acid","-","A73784","-","-","-","130.0 - 135.0","?C","132.0","Celsius"
"OC1=CC=C(C=C1)C1=CC=C(O)C=C1","-","6845","3003.0","4,4'-Dihydroxybiphenyl","-","A73784","-","-","-","278.0 - 283.0","?C","280.0","Celsius"
"CCOC(=O)CCl","-","7465","3004.0","ETHYL CHLOROACETATE","-","A73784","-","-","-","-26.0 - -21.0","?C","-23.5","Celsius"
"COCC(C)O","-","7612","3005.0","1-Methoxypropan-2-ol","-","A73784","-","-","-","-100.0 - -95.0","?C","-97.5","Celsius"
"CCCCCCC(C)=O","-","7802","3006.0","2-octanone","-","A73784","-","-","-","-21.0 - -16.0","?C","-18.5","Celsius"
"CCCCCCCN","-","7835","3007.0","1-Heptylamine","-","A73784","-","-","-","-23.0 - -18.0","?C","-20.5","Celsius"
"CCCCCCCCCCCCCCCCCCCCCC(O)=O","-","7923","3008.0","DOCOSANOIC ACID","-","A73784","-","-","-","76.0 - 81.0","?C","78.5","Celsius"
"C[Si]1(C)O[Si](C)(C)O[Si](C)(C)O1","-","10452","3009.0","2,2,4,4,6,6-Hexamethyl-1,3,5,2,4,6-trioxatrisilinane","-","A73784","-","-","-","60.0 - 65.0","?C","62.5","Celsius"
"BrC1=CC=C2C=CC=CC2=C1","-","10894","3010.0","2-bromonaphthalene","-","A73784","-","-","-","54.0 - 59.0","?C","56.5","Celsius"
"NC(=O)C1=CC=C(Cl)C=C1","-","11587","3011.0","p-chlorobenzamide","-","A73784","-","-","-","173.0 - 178.0","?C","176.0","Celsius"
"CC(=O)C1=CNC2=C1C=CC=C2","-","12275","3012.0","3-Acetylindole","-","A73784","-","-","-","189.0 - 194.0","?C","192.0","Celsius"
"C1=CC=C(C=C1)C1=C2C=CC=CC2=C(C2=CC=CC=C2)C2=CC=CC=C12","-","14430","3013.0","9,10-DIPHENYLANTHRACENE","-","A73784","-","-","-","246.0 - 251.0","?C","248.0","Celsius"
"ClC1=CC=CC(Cl)=C1Br","-","27488","3014.0","1-BROMO-2,6-DICHLOROBENZENE","-","A73784","-","-","-","61.0 - 66.0","?C","63.5","Celsius"
"ClC1=CC(C=O)=CC(Cl)=C1","-","32882","3015.0","3,5-Dichlorobenzaldehyde","-","A73784","-","-","-","63.0 - 68.0","?C","65.5","Celsius"
"COC(=O)C1=CC=C(C=C1)C#N","-","63956","3016.0","Methyl 4-cyanobenzoate","-","A73784","-","-","-","62.0 - 67.0","?C","64.5","Celsius"
"CC1=CC(O)=CC=C1Br","-","65689","3017.0","4-Bromo-3-methylphenol","-","A73784","-","-","-","59.0 - 64.0","?C","61.5","Celsius"
"CCOC(=O)C1=CC(C)=NN1","-","70048","3018.0","Ethyl 3-methyl-1H-pyrazole-5-carboxylate","-","A73784","-","-","-","82.0 - 87.0","?C","84.5","Celsius"
"SC1=NC2=CC=CC=C2N1","-","616466","3019.0","1H-Benzimidazole-2-thiol","-","A73784","-","-","","298.0","?C","298.0","Celsius"
"[O-][N+](=O)C1=CC=C(O1)\C=N\N1CC(=O)NC1=O","-","5036498","3020.0","nitrofurantoin","-","A73784","-","-","-","263.0 - 268.0","?C","266.0","Celsius"
"NC(=O)C1=CC=CC=C1N","-","10298355","3021.0","o-Aminobenzamide","-","A73784","-","-","-","108.0 - 113.0","?C","110.0","Celsius"
"NCCNCCN","-","13835401","3022.0","N-(2-aminoethyl)ethane-1,2-diamine","-","A73784","-","-","-","-40.0 - -35.0","?C","-37.5","Celsius"
"CC1=CC=C(O)C(C)=C1","-","13839123","3023.0","2,4-Dimethylphenol","-","A73784","-","-","-","22.0 - 27.0","?C","24.5","Celsius"
"CCCCC(CC)COC(=O)C1=CC=CC=C1C(=O)OCC(CC)CCCC","-","21106505","3024.0","bis-2-ethylhexyl_phthalate","-","A73784","-","-","-","-55.0 - -50.0","?C","-52.5","Celsius"
"CC1=CC(=O)C2=CC=CC=C2C1=O","-","3915","3026.0","2-Methyl-1,4-naphthoquinone","-","A73784","-","-","-","102.0 - 107.0","?C","104.0","Celsius"
"C[C@]12C[C@H](O)[C@H]3[C@@H](CCC4=CC(=O)C=C[C@]34C)[C@@H]1CC[C@]2(O)C(=O)CO","-","5552","3027.0","Prednisolone","-","A73784","-","-","-","235.0 - 240.0","?C","238.0","Celsius"
"[O-][N+](=O)C1=CC=CC2=CC=CC=C12","-","6588","3028.0","1-nitronaphthalene","-","A73784","-","-","-","57.0 - 62.0","?C","59.5","Celsius"
"CCCC(=O)OCC","-","7475","3029.0","ethyl butyrate","-","A73784","-","-","-","-98.0 - -93.0","?C","-95.5","Celsius"
"C1CCC2=CC=CC=C2C1","-","8097","3030.0","1,2,3,4-Tetrahydronaphthalene","-","A73784","-","-","-","-36.0 - -31.0","?C","-33.5","Celsius"
"CC(C)(C1=CC=CC=C1)C1=CC=C(O)C=C1","-","11249","3031.0","4-(2-phenylpropan-2-yl)phenol","-","A73784","-","-","-","70.0 - 75.0","?C","72.5","Celsius"
"OCC1=CC=C(Cl)C=C1","-","12823","3032.0","(4-Chlorophenyl)methanol","-","A73784","-","-","-","70.0 - 75.0","?C","72.5","Celsius"
"[O-][N+](=O)C1=CC(C=C)=CC=C1","-","61789","3033.0","1-Nitro-3-vinylbenzene","-","A73784","-","-","-","-10.0 - -5.0","?C","-7.5","Celsius"
"CC(C)(CO)CO","-","13835293","3034.0","2,2-Dimethylpropane-1,3-diol","-","A73784","-","-","-","125.0 - 130.0","?C","128.0","Celsius"
"OC(=O)C1=CC(=CC=C1O)C1=CC=C(F)C=C1F","-","2951","3035.0","Diflunisal","-","A73784","-","-","-","210.5 - 215.5","?C","213.0","Celsius"
"CC(C=CC=C(C)C=CC1=C(C)CCCC1(C)C)=CC=CC=C(C)C=CC=C(C)C=CC1=C(C)CCCC1(C)C","-","4444129","3036.0","beta,beta-Carotene","-","A73784","-","-","-","178.0 - 183.0","?C","180.0","Celsius"
"OC(=O)C1=CC=C(C=C1)[N+]([O-])=O","-","5882","3037.0","4-nitrobenzoic acid","-","A73784","-","-","-","237.0 - 242.0","?C","240.0","Celsius"
"O=C1N(C2CCC(=O)NC2=O)C(=O)C2=CC=CC=C12","-","5233","3038.0","Thalidomide","-","A73784","-","-","-","270.0 - 275.0","?C","272.0","Celsius"
"C[C@]12CC[C@H]3[C@@H](CCC4=C3C=CC(O)=C4)[C@@H]1CC[C@@H]2O","-","5554","3039.0","Estradiol","-","A73784","-","-","-","173.0 - 178.0","?C","176.0","Celsius"
"OC1=C(Cl)C=C(Cl)C=C1Cl","-","21106172","3040.0","2,4,6-trichlorophenol","-","A73784","-","-","-","65.0 - 70.0","?C","67.5","Celsius"
"NC1=CC=CC=C1C(F)(F)F","-","6656","3041.0","2-(TRIFLUOROMETHYL)ANILINE","-","A73784","-","-","-","-34.0 - -29.0","?C","-31.5","Celsius"
"CCOC(=O)C1=CC=C(O)C=C1","-","13846749","1589.0","Ethyl 4-hydroxybenzoate","-","A73784","-","-","-","116.0 - 117.0","?C","116.0","Celsius"
"CCC(C)=CC","-","559027","2674.0","3-Methyl-cis-2-pentene","-","A73784","-","-","-","-138.5 - -135.0","?C","-137.0","Celsius"