"SMILES","CASRN","EXTERNALID","N","NAME","NAME","ARTICLEID","PUBMEDID","PAGE","TABLE","Melting Point {measured}","UNIT {Melting Point}","Melting Point {measured, converted}","UNIT {Melting Point}"
"CC1=C(N)C=CC=C1[N+]([O-])=O","-","11290","1930.0","2-Methyl-3-nitroaniline","-","A73784","-","-","-","90.0 - 92.0","?C","91.0","Celsius"
"CN(C)C1=CC=CC2=C1C=CC=C2S(Cl)(=O)=O","-","11308","1931.0","Dansyl chloride","-","A73784","-","-","-","70.0 - 72.0","?C","71.0","Celsius"
"[O-][N+](=O)C1=CC=CC2=C1N=CC=C2","-","11337","1932.0","8-Nitroquinoline","-","A73784","-","-","-","88.0 - 90.0","?C","89.0","Celsius"
"OC(=O)C1=C(Br)C=CC(Br)=C1","-","11398","1933.0","2,5-DIBROMOBENZOIC ACID","-","A73784","-","-","-","155.0 - 157.0","?C","156.0","Celsius"
"NC1=C2C=CC=NC2=CC=C1","-","11417","1934.0","5-Aminoquinoline","-","A73784","-","-","-","108.0 - 110.0","?C","109.0","Celsius"
"ClC1=NC2=CC=CC=C2C=C1","-","11434","1935.0","2-Chloroquinoline","-","A73784","-","-","-","36.0 - 38.0","?C","37.0","Celsius"
"CC1=CC=CC(=C1)C1=CC(C)=CC=C1","-","11437","1936.0","3,3'-DIMETHYLBIPHENYL","-","A73784","-","-","-","7.0 - 9.0","?C","8.0","Celsius"
"NC1=CC(=CC(=C1)[N+]([O-])=O)[N+]([O-])=O","-","11571","1937.0","3,5-dinitroaniline","-","A73784","-","-","-","161.0 - 163.0","?C","162.0","Celsius"
"OC(=O)C1=CC=C(C=O)C=C1","-","11591","1938.0","p-formyl_benzoic_acid","-","A73784","-","-","-","245.0 - 247.0","?C","246.0","Celsius"
"OC(=O)CC1=CC(O)=CC=C1","-","11624","1939.0","3-Hydroxyphenylacetic acid","-","A73784","-","-","-","130.0 - 132.0","?C","131.0","Celsius"
"NNC=O","-","11728","1940.0","Formic acid hydrazide","-","A73784","-","-","-","55.0 - 57.0","?C","56.0","Celsius"
"CC(C)(C)C#N","-","11909","1941.0","TRIMETHYLACETONITRILE","-","A73784","-","-","-","15.0 - 17.0","?C","16.0","Celsius"
"CC(C)CCC(O)=O","-","12067","1942.0","4-Methylvaleric acid","-","A73784","-","-","-","-35.0 - -33.0","?C","-34.0","Celsius"
"CC1=CC=C(C(O)=C1)[N+]([O-])=O","-","12263","1943.0","5-Methyl-2-nitrophenol","-","A73784","-","-","-","53.0 - 55.0","?C","54.0","Celsius"
"CC(C)(C(O)=O)C1=CC=CC=C1","-","12667","1944.0","alpha,alpha-DIMETHYLPHENYLACETIC ACID","-","A73784","-","-","-","79.0 - 81.0","?C","80.0","Celsius"
"CC1=CC=C2C=CC=C(C2=N1)[N+]([O-])=O","-","12858","1945.0","2-Methyl-8-nitroquinoline","-","A73784","-","-","-","138.0 - 140.0","?C","139.0","Celsius"
"S(SC1=CC=CC=C1)C1=CC=CC=C1","-","12861","1946.0","DIPHENYL DISULFIDE","-","A73784","-","-","-","60.0 - 62.0","?C","61.0","Celsius"
"OC1=C(Cl)C=CC(Cl)=C1Cl","-","13029","1947.0","2,3,6-Trichlorophenol","-","A73784","-","-","-","56.0 - 58.0","?C","57.0","Celsius"
"CC1=CC(=O)C=C(C)O1","-","13262","1948.0","2,6-Dimethyl-4-pyrone","-","A73784","-","-","-","132.0 - 134.0","?C","133.0","Celsius"
"CNC1=CC=C(Cl)C=C1C(=O)C1=CC=CC=C1","-","13323","1949.0","[5-Chloro-2-(methylamino)phenyl](phenyl)methanone","-","A73784","-","-","-","94.0 - 96.0","?C","95.0","Celsius"
"C=CN1C2=C(C=CC=C2)C2=C1C=CC=C2","-","14414","1950.0","9-Vinyl-9H-carbazole","-","A73784","-","-","-","63.0 - 65.0","?C","64.0","Celsius"
"CCCCCCCCCCCC[N+](C)(C)[O-]","-","14688","1951.0","dodecyl(dimethyl)amine oxide","-","A73784","-","-","-","130.5 - 132.5","?C","132.0","Celsius"
"CCCCCCCCCC(C)O","-","14700","1952.0","2-Undecanol","-","A73784","-","-","-","0.0 - 2.0","?C","1.0","Celsius"
"CCCCCCCCCCCC(C)O","-","14701","1953.0","2-TRIDECANOL","-","A73784","-","-","-","23.0 - 25.0","?C","24.0","Celsius"
"COC1=CC=CC(CC(O)=O)=C1","-","14948","1954.0","3-Methoxyphenylacetic acid","-","A73784","-","-","-","70.0 - 72.0","?C","71.0","Celsius"
"OCC1=CC(Cl)=C(Cl)C=C1","-","14956","1955.0","3,4-DICHLOROBENZYL ALCOHOL","-","A73784","-","-","-","36.0 - 38.0","?C","37.0","Celsius"
"CC1=CC=CC(N)=N1","-","14991","1956.0","2-Amino-6-methylpyridine","-","A73784","-","-","-","41.0 - 43.0","?C","42.0","Celsius"
"CCCC#CCCC","-","15221","1957.0","4-OCTYNE","-","A73784","-","-","-","-103.0 - -101.0","?C","-102.0","Celsius"
"COC1=CC=C(O)C=C1OC","-","15420","1958.0","3,4-DIMETHOXYPHENOL","-","A73784","-","-","-","81.0 - 83.0","?C","82.0","Celsius"
"ClC1=CC(=CC=C1)C1=CC=CC=C1","-","15488","1959.0","3-chlorobiphenyl","-","A73784","-","-","-","16.0 - 18.0","?C","17.0","Celsius"
"CC(=O)NC1=C(C)C=CC=C1C","-","15753","1960.0","2',6'-Dimethylacetanilide","-","A73784","-","-","-","181.0 - 183.0","?C","182.0","Celsius"
"ClC1=CC=CC(Cl)=N1","-","16095","1961.0","2,6-Dichloropyridine","-","A73784","-","-","-","86.0 - 88.0","?C","87.0","Celsius"
"CCCCCCCCOC1=CC=C(C=C1)C(O)=O","-","16310","1962.0","4-n-Octyloxybenzoic acid","-","A73784","-","-","-","101.0 - 103.0","?C","102.0","Celsius"
"OC1=CC=C(SC2=CC=C(O)C=C2)C=C1","-","16612","1963.0","4,4'-Thiodiphenol","-","A73784","-","-","-","153.0 - 155.0","?C","154.0","Celsius"
"CCCCCCCCCCCCCCCCCCS","-","16913","1964.0","1-OCTADECANETHIOL","-","A73784","-","-","-","30.0 - 32.0","?C","31.0","Celsius"
"CCCCCCCCCCCCCCCCS","-","17019","1965.0","1-HEXADECANETHIOL","-","A73784","-","-","-","19.0 - 21.0","?C","20.0","Celsius"
"OC(=O)C1=C(O)C(Br)=CC(Br)=C1","-","17440","1966.0","3,5-DIBROMOSALICYLIC ACID","-","A73784","-","-","-","226.0 - 228.0","?C","227.0","Celsius"
"OC(=O)C1=CC(Cl)=C(O)C=C1","-","18708","1967.0","3-CHLORO-4-HYDROXYBENZOIC ACID","-","A73784","-","-","-","169.0 - 171.0","?C","170.0","Celsius"
"CC1=C(Br)C=C(Br)C(O)=C1Br","-","19526","1968.0","2,4,6-Tribromo-3-methylphenol","-","A73784","-","-","-","82.0 - 84.0","?C","83.0","Celsius"
"NNC(=O)C1=CC=C(N)C=C1","-","20160","1969.0","4-Aminobenzhydrazide","-","A73784","-","-","-","226.0 - 228.0","?C","227.0","Celsius"
"NNC(=O)C1=CC=C(Br)C=C1","-","20861","1970.0","4-Bromobenzhydrazide","-","A73784","-","-","-","166.0 - 168.0","?C","167.0","Celsius"
"O=C(C1=CC=CC=C1)C1=CC=NC=C1","-","24905","1972.0","4-Benzoylpyridine","-","A73784","-","-","-","70.0 - 72.0","?C","71.0","Celsius"
"O=C=NC1=CC(=CC=C1)N=C=O","-","29002","1974.0","1,3-Phenylene diisocyanate","-","A73784","-","-","-","48.0 - 50.0","?C","49.0","Celsius"
"ClN1C(=O)CCC1=O","-","29129","1975.0","N-CHLOROSUCCINIMIDE","-","A73784","-","-","-","148.0 - 150.0","?C","149.0","Celsius"
"CC(=O)NC1=CC=C(C=C1)C#N","-","34195","1976.0","4'-Cyanoacetanilide","-","A73784","-","-","-","205.0 - 207.0","?C","206.0","Celsius"
"ClC1=C(Cl)C(Br)=CC=C1","-","38364","1977.0","1-BROMO-2,3-DICHLOROBENZENE","-","A73784","-","-","-","58.0 - 60.0","?C","59.0","Celsius"
"BrCC(Br)(CCC#N)C#N","-","55806","1978.0","1,2-Dibromo-2,4-dicyanobutane","-","A73784","-","-","-","50.0 - 52.0","?C","51.0","Celsius"
"SC1=CC=C(Br)C=C1","-","59439","1979.0","4-Bromothiophenol","-","A73784","-","-","-","73.0 - 75.0","?C","74.0","Celsius"
"CCC(=O)C1=CC=C(Br)C=C1","-","59691","1980.0","4'-Bromopropiophenone","-","A73784","-","-","-","46.0 - 48.0","?C","47.0","Celsius"
"BrC1=CC=C(Br)C2=CC=CC=C12","-","59892","1981.0","1,4-Dibromonaphthalene","-","A73784","-","-","-","81.0 - 83.0","?C","82.0","Celsius"
"ClC1=CC=C(C=C1)C(=O)C1=CC=CC=C1Cl","-","59928","1982.0","2,4'-Dichlorobenzophenone","-","A73784","-","-","-","65.0 - 67.0","?C","66.0","Celsius"
"O=C(OC1=CC(OC(=O)C2=CC=CC=C2)=CC=C1)C1=CC=CC=C1","-","60108","1983.0","1,3-Dibenzoyloxybenzene","-","A73784","-","-","-","116.0 - 118.0","?C","117.0","Celsius"
"OC1=CC(O)=C(Cl)C=C1Cl","-","60631","1985.0","4,6-Dichlororesorcinol","-","A73784","-","-","-","113.0 - 115.0","?C","114.0","Celsius"
"OC(=O)C1=C(F)C=CC=C1Cl","-","61264","1986.0","2-Chloro-6-fluorobenzoic acid","-","A73784","-","-","-","158.0 - 160.0","?C","159.0","Celsius"
"NC(=O)C1=CC=CC=C1F","-","61279","1987.0","2-FLUOROBENZAMIDE","-","A73784","-","-","-","116.0 - 118.0","?C","117.0","Celsius"
"CC1=CC(N)=NC(C)=N1","-","61354","1988.0","4-Amino-2,6-dimethylpyrimidine","-","A73784","-","-","-","183.0 - 185.0","?C","184.0","Celsius"
"ClC(=O)C1=CC=C(Br)C=C1","-","61790","1989.0","4-Bromobenzoyl chloride","-","A73784","-","-","-","40.0 - 42.0","?C","41.0","Celsius"
"CC1=CC=C(C=C1)S(=O)(=O)C1=CC=C(C)C=C1","-","62252","1990.0","Di-p-tolyl sulfone","-","A73784","-","-","-","157.0 - 159.0","?C","158.0","Celsius"
"OC(=O)C1=C(C(O)=O)C(=CC=C1)[N+]([O-])=O","-","62265","1991.0","3-NITROPHTHALIC ACID","-","A73784","-","-","-","210.0 - 212.0","?C","211.0","Celsius"
"[O-][N+](=O)C1=CC=CC2=C1C=CN=C2","-","62303","1992.0","5-Nitroisoquinoline","-","A73784","-","-","-","108.0 - 110.0","?C","109.0","Celsius"
"CCOC(=O)C1=CC=CC=C1[N+]([O-])=O","-","62340","1993.0","Ethyl 2-nitrobenzoate","-","A73784","-","-","-","28.0 - 30.0","?C","29.0","Celsius"
"OC1=CC=NC2=CC=CC=C12","-","62357","1994.0","4-Hydroxyquinoline","-","A73784","-","-","-","201.0 - 203.0","?C","202.0","Celsius"
"OCC1=CC=CC=C1CO","-","62368","1995.0","1,2-Benzenedimethanol","-","A73784","-","-","-","62.0 - 64.0","?C","63.0","Celsius"
"COC(=O)CC(=C)C(=O)OC","-","62453","1996.0","Dimethyl itaconate","-","A73784","-","-","-","36.0 - 38.0","?C","37.0","Celsius"
"CCOC(=O)C1=CC(=CC(=C1)[N+]([O-])=O)[N+]([O-])=O","-","62468","1997.0","Ethyl 3,5-dinitrobenzoate","-","A73784","-","-","-","92.0 - 94.0","?C","93.0","Celsius"
"BrCC1=CC(CBr)=CC=C1","-","62581","1998.0","m-Xylylene dibromide","-","A73784","-","-","-","75.0 - 77.0","?C","76.0","Celsius"
"CCCCCCCCCCCCCCCCCC(C)=O","-","62631","1999.0","2-NONADECANONE","-","A73784","-","-","-","55.0 - 57.0","?C","56.0","Celsius"
"OC(=O)COC1=CC=CC=C1C(O)=O","-","62668","2000.0","2-(Carboxymethoxy)benzoic acid","-","A73784","-","-","-","189.0 - 191.0","?C","190.0","Celsius"
"CCCCCCCCCCCCCC(N)=O","-","62698","2001.0","n-tetradecanamide","-","A73784","-","-","-","104.0 - 106.0","?C","105.0","Celsius"
"CC(=O)C1=CC=C2C=CC=CC2=C1O","-","62933","2002.0","2-Acetyl-1-naphthol","-","A73784","-","-","-","99.0 - 101.0","?C","100.0","Celsius"
"OCC1=CC=C(Br)C=C1","-","63307","2003.0","p-Bromobenzyl alcohol","-","A73784","-","-","-","76.0 - 78.0","?C","77.0","Celsius"
"CC1=NNC(=O)NC1=O","-","63453","2004.0","6-AZATHYMINE","-","A73784","-","-","-","211.0 - 213.0","?C","212.0","Celsius"
"ClC1=CC2=C(C=C1Cl)C(=O)OC2=O","-","63515","2005.0","5,6-dichlor-2-benzofuran-1,3-dion","-","A73784","-","-","-","186.0 - 188.0","?C","187.0","Celsius"
"CC(C)(C)C1=CC=C(O)C(N)=C1","-","64143","2006.0","2-Amino-4-tert-butylphenol","-","A73784","-","-","-","161.0 - 163.0","?C","162.0","Celsius"
"C1=CC=C(C=C1)C1=C2C=CC3=C(C=CN=C3C2=NC=C1)C1=CC=CC=C1","-","65648","2007.0","4,7-Diphenyl-1,10-phenanthroline","-","A73784","-","-","-","218.0 - 220.0","?C","219.0","Celsius"
"CCOC1=CC=C(C=C1)C(C)=O","-","65704","2008.0","4'-Ethoxyacetophenone","-","A73784","-","-","-","37.0 - 39.0","?C","38.0","Celsius"
"CC(C)(C)C1=CC(C=O)=CC(=C1O)C(C)(C)C","-","65974","2009.0","3,5-Di-tert-butyl-4-hydroxybenzaldehyde","-","A73784","-","-","-","186.0 - 188.0","?C","187.0","Celsius"
"OC1=CC=C(C=C1)C(C1=CC=C(O)C=C1)(C(F)(F)F)C(F)(F)F","-","66498","2010.0","4,4'-(Hexafluoroisopropylidene)diphenol","-","A73784","-","-","-","160.0 - 162.0","?C","161.0","Celsius"
"[O-][N+](=O)C1=CC=CC=C1F","-","66528","2011.0","1-Fluoro-2-nitrobenzene","-","A73784","-","-","-","-8.0 - -6.0","?C","-7.0","Celsius"
"C(P(C1=CC=CC=C1)C1=CC=CC=C1)P(C1=CC=CC=C1)C1=CC=CC=C1","-","67509","2012.0","Bis(diphenylphosphino)methane","-","A73784","-","-","-","119.0 - 121.0","?C","120.0","Celsius"
"OC1=CC=CC2=C1C=CN2","-","67953","2013.0","4-HYDROXYINDOLE","-","A73784","-","-","-","98.0 - 100.0","?C","99.0","Celsius"
"NC1=C(Cl)C=CC(=C1)C(O)=O","-","68579","2014.0","3-Amino-4-chlorobenzoic Acid","-","A73784","-","-","-","214.0 - 216.0","?C","215.0","Celsius"
"CC1=C(OC(=N1)C1=CC=C(C=C1)C1=NC(C)=C(O1)C1=CC=CC=C1)C1=CC=CC=C1","-","68961","2015.0","2,2'-(1,4-Phenylene)bis(4-methyl-5-phenyl-1,3-oxazole)","-","A73784","-","-","-","232.0 - 234.0","?C","233.0","Celsius"
"BrC1=CC(Br)=C(Br)S1","-","69057","2016.0","2,3,5-Tribromothiophene","-","A73784","-","-","-","27.0 - 29.0","?C","28.0","Celsius"
"C(N1C=CN=C1)C1=CC=CC=C1","-","70309","2017.0","1-Benzylimidazole","-","A73784","-","-","-","69.0 - 71.0","?C","70.0","Celsius"
"COC1=CC=CC(=C1C)[N+]([O-])=O","-","70915","2018.0","2-Methyl-3-nitroanisole","-","A73784","-","-","-","53.0 - 55.0","?C","54.0","Celsius"
"COC(=O)C1=CC(Cl)=CC=C1N","-","71213","2019.0","Methyl 2-amino-5-chlorobenzoate","-","A73784","-","-","-","67.0 - 69.0","?C","68.0","Celsius"
"COC1=CC=CC(=C1)C(=O)NN","-","72141","2020.0","3-Methoxybenzhydrazide","-","A73784","-","-","-","92.0 - 94.0","?C","93.0","Celsius"
"NC1=CC=CC(CO)=C1","-","72534","2021.0","3-Aminobenzyl alcohol","-","A73784","-","-","-","93.0 - 95.0","?C","94.0","Celsius"
"ClC1=CC(=CC(Cl)=C1)C#N","-","73125","2022.0","3,5-Dichlorobenzonitrile","-","A73784","-","-","-","64.0 - 66.0","?C","65.0","Celsius"
"ClS(=O)(=O)C1=CC=CS1","-","77127","2023.0","Thiophene-2-sulfonyl chloride","-","A73784","-","-","-","28.0 - 30.0","?C","29.0","Celsius"
"OC1C(O)C2CCC1C2","-","77326","2024.0","exo-2-endo-3-norbornanediol","-","A73784","-","-","-","139.0 - 141.0","?C","140.0","Celsius"
"OC1(CCCC1)C#C","-","78543","2025.0","1-Ethynylcyclopentanol","-","A73784","-","-","-","25.0 - 27.0","?C","26.0","Celsius"
"OCC1C2=CC=CC=C2C2=CC=CC=C12","-","81679","2026.0","9-Fluorenylmethanol","-","A73784","-","-","-","104.0 - 106.0","?C","105.0","Celsius"
"FC(F)(F)C1=CN=C(Cl)C=C1","-","83365","2027.0","2-Chloro-5-(trifluoromethyl)pyridine","-","A73784","-","-","-","31.0 - 33.0","?C","32.0","Celsius"
"CCOC(=O)C(=CC1=CC=CC=C1)C(=O)OCC","-","85490","2028.0","Diethyl benzylidenemalonate","-","A73784","-","-","-","30.0 - 32.0","?C","31.0","Celsius"
"CC1=NN=C(C)S1","-","87514","2029.0","2,5-Dimethyl-1,3,4-thiadiazole","-","A73784","-","-","-","63.0 - 65.0","?C","64.0","Celsius"
"CC(C)C(O)C(C)(C)C","-","96641","2030.0","2,2,4-TRIMETHYL-3-PENTANOL","-","A73784","-","-","-","-13.0 - -11.0","?C","-12.0","Celsius"
"CCN1CCNC(=O)C1=O","-","97850","2031.0","1-Ethylpiperazine-2,3-dione","-","A73784","-","-","-","108.0 - 110.0","?C","109.0","Celsius"
"OC1=C(C=C(F)C=C1)[N+]([O-])=O","-","120011","2032.0","4-fluoro-2-nitrophenol","-","A73784","-","-","-","73.0 - 75.0","?C","74.0","Celsius"
"O=C(CCC(=O)C1=CC=CC=C1)C1=CC=CC=C1","-","120096","2033.0","1,2-Dibenzoylethane","-","A73784","-","-","-","144.0 - 146.0","?C","145.0","Celsius"
"OC(=O)CCCC[C@@H]1SC[C@@H]2NC(=O)N[C@H]12","-","149962","2034.0","d-biotin","-","A73784","-","-","-","230.0 - 232.0","?C","231.0","Celsius"
"[O-][N+](=O)C1=CC2=C(COC2=O)C=C1","-","194210","2035.0","6-Nitrophthalide","-","A73784","-","-","-","143.0 - 145.0","?C","144.0","Celsius"
"IC1=CC=CC(C=O)=C1","-","221355","2036.0","3-iodobenzaldehyde","-","A73784","-","-","-","56.0 - 58.0","?C","57.0","Celsius"
"CC(C)(C)C1=CC=C2OC(=NC2=C1)C1=CC=C(S1)C1=NC2=CC(=CC=C2O1)C(C)(C)C","-","258050","2037.0","2,2'-thiene-2,5-diylbis(5-tert-butyl-1,3-benzoxazole)","-","A73784","-","-","-","199.0 - 201.0","?C","200.0","Celsius"
"CCOC(=O)C1=CSC(C)=N1","-","258907","2038.0","Ethyl 2-methylthiazole-4-carboxylate","-","A73784","-","-","-","55.0 - 57.0","?C","56.0","Celsius"
"O=C1CC2=CC=CC=C2N1","-","284794","2039.0","OXINDOLE","-","A73784","-","-","-","126.0 - 128.0","?C","127.0","Celsius"
"CCCC#CC(O)=O","-","287294","2040.0","2-Hexynoic acid","-","A73784","-","-","-","25.0 - 27.0","?C","26.0","Celsius"
"OC(=O)C1=C(F)C(F)=CC=C1","-","328957","2041.0","2,3-Difluorobenzoic Acid","-","A73784","-","-","-","162.0 - 164.0","?C","163.0","Celsius"
"CC1(C)[C@H]2CC[C@]1(C)C(=O)C2","-","392267","2042.0","(1s)-camphor","-","A73784","-","-","-","178.0 - 180.0","?C","179.0","Celsius"
"O[C@H]([C@@H](O)C(O)=O)C(O)=O","-","392277","2043.0","(2R,3R)-2,3-dihydroxysuccinic acid","-","A73784","-","-","-","169.0 - 171.0","?C","170.0","Celsius"
"OC(=O)C1=C(F)C=C(F)C=C1F","-","453910","2044.0","2,4,6-Trifluorobenzoic Acid","-","A73784","-","-","-","141.0 - 143.0","?C","142.0","Celsius"
"NNC(=O)C1=CC(Br)=CC=C1","-","454393","2045.0","3-Bromobenzhydrazide","-","A73784","-","-","-","156.0 - 158.0","?C","157.0","Celsius"
"OC(=O)C1=CC(F)=C(F)C=C1F","-","454604","2046.0","2,4,5-Trifluorobenzoic Acid","-","A73784","-","-","-","98.0 - 100.0","?C","99.0","Celsius"
"FC1=C(F)C(C#N)=C(F)C(C#N)=C1F","-","528656","2047.0","2,4,5,6-Tetrafluoroisophthalonitrile","-","A73784","-","-","-","77.0 - 79.0","?C","78.0","Celsius"
"COC1=CC(\C=C\CO)=CC=C1O","-","1266063","2048.0","CONIFERYL ALCOHOL","-","A73784","-","-","-","74.0 - 76.0","?C","75.0","Celsius"
"CCCCNC(=S)NCCCC","-","2005824","2049.0","N,N'-di-n-Butylthiourea","-","A73784","-","-","-","64.0 - 66.0","?C","65.0","Celsius"
"CCCOC1CCC2C3C(CCC12C)C1(C)CCC(CC1CC3=O)OCCC","-","2029604","2050.0","3,17-dipropoxyandrostan-7-one","-","A73784","-","-","-","161.0 - 163.0","?C","162.0","Celsius"
"OC[C@@H](O)[C@@H](O)[C@@H](O)C=O","-","4470639","2051.0","D-Ribose","-","A73784","-","-","-","82.0 - 84.0","?C","83.0","Celsius"
"ON=CC1=CC=C(C=C1)[N+]([O-])=O","-","4523938","2052.0","Benzaldehyde, 4-nitro-, oxime","-","A73784","-","-","-","128.0 - 130.0","?C","129.0","Celsius"
"O\N=C\C(=O)C1=CC=CC=C1","-","7840755","2053.0","Isonitrosoacetophenone","-","A73784","-","-","-","127.0 - 129.0","?C","128.0","Celsius"
"CC1=CC=C(NC(=O)C2=CC=CC=C2)C=C1","-","10274392","2054.0","N-p-Tolyl-benzamide","-","A73784","-","-","-","156.0 - 158.0","?C","157.0","Celsius"
"OC1=CC=C2C=CC=CC2=C1\N=N\C1=CC=CC=C1","-","10296256","2055.0","1-[(E)-phenyldiazenyl]-2-naphthol","-","A73784","-","-","-","132.0 - 134.0","?C","133.0","Celsius"
"OCCCCCO","-","13839441","2056.0","1,5-PENTANEDIOL","-","A73784","-","-","-","-18.0 - -16.0","?C","-17.0","Celsius"
"C1=CC=C(N=C1)C1=CC=CC=N1","-","13867714","2057.0","2,2'-BIPYRIDINE","-","A73784","-","-","-","70.0 - 72.0","?C","71.0","Celsius"
"CC(=O)C1C(=O)OC(C)=CC1=O","-","13887609","2058.0","DEHYDROACETIC ACID","-","A73784","-","-","-","109.0 - 111.0","?C","110.0","Celsius"
"CCCCCCCCCCCCCCCCCC(=O)OC[C@@H](O)[C@H]1OC[C@H](O)[C@H]1O","-","16736467","2059.0","1,4-anhydro-6-O-stearoyl-D-glucitol","-","A73784","-","-","-","55.0 - 57.0","?C","56.0","Celsius"
"C1=CC(=CC=N1)C1=CC=NC=C1","-","21105699","2060.0","4,4'-Bipyridine","-","A73784","-","-","-","111.0 - 113.0","?C","112.0","Celsius"
"C1=CC=C2N=CC=NC2=C1","-","21106470","2061.0","Quinoxaline","-","A73784","-","-","-","28.0 - 30.0","?C","29.0","Celsius"
"[O-][N+](=O)C1=CC(Br)=CC=C1","-","21111786","2062.0","M-BROMONITROBENZENE","-","A73784","-","-","-","54.0 - 56.0","?C","55.0","Celsius"
"ClC1=CC(C=O)=C(Cl)C=C1","-","21111840","2063.0","2,5-Dichlorobenzaldehyde","-","A73784","-","-","-","56.0 - 58.0","?C","57.0","Celsius"
"[O-][N+](=O)C1=CC=CC(=C1Cl)[N+]([O-])=O","-","21242790","2064.0","2-Chloro-1,3-dinitrobenzene","-","A73784","-","-","-","86.0 - 88.0","?C","87.0","Celsius"
"ClC1CC2C(C1Cl)C1(Cl)C(Cl)=C(Cl)C2(Cl)C1(Cl)Cl","-","21429023","2065.0","b-Chlordane, trans-Chlordane","-","A73784","-","-","-","104.0 - 106.0","?C","105.0","Celsius"
"OC(=O)C1=C(O)C(O)=CC=C1","-","18","2066.0","2,3-DIHYDROXYBENZOIC ACID","-","A73784","-","-","-","204.0 - 206.0","?C","205.0","Celsius"
"OC1=CC(Cl)=CC=C1Cl","-","65","2067.0","2,5-Dichlorophenol","-","A73784","-","-","-","57.0 - 59.0","?C","58.0","Celsius"
"OCC1=CC(O)=CC=C1","-","100","2068.0","3-hydroxybenzyl_alcohol","-","A73784","-","-","-","71.0 - 73.0","?C","72.0","Celsius"
"OC(=O)CCCCCC(O)=O","-","376","2069.0","pimelic acid","-","A73784","-","-","-","104.0 - 106.0","?C","105.0","Celsius"
"OC(=O)C1=CC(Cl)=CC=C1","-","434","2070.0","m-chlorobenzoic_acid","-","A73784","-","-","-","156.0 - 158.0","?C","157.0","Celsius"
"OC(CC(O)=O)C(O)=O","-","510","2071.0","malic acid","-","A73784","-","-","-","130.0 - 132.0","?C","131.0","Celsius"
"OC1=CC=CC2=C1N=CC=C2","-","1847","2072.0","quinolin-8-ol","-","A73784","-","-","-","74.0 - 76.0","?C","75.0","Celsius"
"CC(=O)NC1=NN=C(S1)S(N)(=O)=O","-","1909","2073.0","Acetazolamide","-","A73784","-","-","-","258.5 - 260.5","?C","260.0","Celsius"
"CN1N(C(=O)C(N)=C1C)C1=CC=CC=C1","-","2066","2074.0","4-amino-1,5-dimethyl-2-phenyl-1,2-dihydro-3H-pyrazol-3-one","-","A73784","-","-","-","107.0 - 109.0","?C","108.0","Celsius"
"OC1=CC=CC2=C1C(=O)C1=C(O)C=CC=C1C2","-","2117","2075.0","1,8-Dihydroxyanthracen-9(10H)-one","-","A73784","-","-","-","179.0 - 181.0","?C","180.0","Celsius"