"SMILES","CASRN","EXTERNALID","N","NAME","NAME","ARTICLEID","PUBMEDID","PAGE","TABLE","Melting Point {measured}","UNIT {Melting Point}","Melting Point {measured, converted}","UNIT {Melting Point}"
"CC(C)(C)C1=CC(O)=C(C=C1O)C(C)(C)C","-","2283","2076.0","2,5-Di-tert-butylbenzene-1,4-diol","-","A73784","-","-","-","216.0 - 218.0","?C","217.0","Celsius"
"OCC1=CC=CC=C1O","-","4962","2077.0","2-hydroxybenzyl_alcohol","-","A73784","-","-","-","85.0 - 87.0","?C","86.0","Celsius"
"OC(=O)C1=CC(Cl)=CC(Cl)=C1","-","5606","2078.0","3,5-dichlorobenzoic_acid","-","A73784","-","-","-","186.0 - 188.0","?C","187.0","Celsius"
"ClC(Cl)Br","-","6119","2079.0","bromodichloromethane","-","A73784","-","-","-","-57.0 - -55.0","?C","-56.0","Celsius"
"CC(C)CBr","-","6307","2081.0","1-bromo-2-methylpropane","-","A73784","-","-","-","-119.0 - -117.0","?C","-118.0","Celsius"
"CC(C)CN","-","6310","2082.0","Isobutylamine","-","A73784","-","-","-","-87.0 - -85.0","?C","-86.0","Celsius"
"ClCC(Cl)Cl","-","6326","2083.0","1,1,2-trichloroethane","-","A73784","-","-","-","-37.0 - -35.0","?C","-36.0","Celsius"
"COC1=CC=CC=C1C1=CC=CC=C1","-","6574","2084.0","2-Methoxybiphenyl","-","A73784","-","-","-","29.0 - 31.0","?C","30.0","Celsius"
"CC(=O)NC1=CC=CC=C1C(O)=O","-","6705","2085.0","n-acetylanthranilic_acid","-","A73784","-","-","-","184.0 - 186.0","?C","185.0","Celsius"
"OC1=C(C=C(Cl)C=C1)[N+]([O-])=O","-","6714","2086.0","4-chloro-2-nitrophenol","-","A73784","-","-","-","87.0 - 89.0","?C","88.0","Celsius"
"O=C1C2=CC=CC=C2CC2=CC=CC=C12","-","6751","2087.0","anthracen-9(10H)-one","-","A73784","-","-","-","155.0 - 157.0","?C","156.0","Celsius"
"CC(=O)C1=CC=C(C=C1)C1=CC=CC=C1","-","6846","2088.0","4-ACETYLBIPHENYL","-","A73784","-","-","-","120.0 - 122.0","?C","121.0","Celsius"
"COC1=CC=C2C=CC=CC2=C1","-","6852","2089.0","2-METHOXYNAPHTHALENE","-","A73784","-","-","-","72.0 - 74.0","?C","73.0","Celsius"
"OC(=O)C1=NC2=CC=CC=C2C=C1","-","6857","2090.0","QUINALDIC ACID","-","A73784","-","-","-","156.0 - 158.0","?C","157.0","Celsius"
"S1C=CC2=CC=CC=C12","-","6951","2091.0","Benzo[b]thiophene","-","A73784","-","-","-","30.0 - 32.0","?C","31.0","Celsius"
"CC1=C(N)C=C(N)C=C1","-","6991","2092.0","2,4-Diaminotoluene","-","A73784","-","-","-","97.0 - 99.0","?C","98.0","Celsius"
"CC(C)(C)C1=CC=C(O)C(=C1)C(C)(C)C","-","7037","2093.0","2,4-Di-tert-butylphenol","-","A73784","-","-","-","54.5 - 56.5","?C","55.5","Celsius"
"NS(=O)(=O)C1=CC=CC=C1","-","7092","2094.0","benzenesulfonamide","-","A73784","-","-","-","151.0 - 153.0","?C","152.0","Celsius"
"NC1=CC=CC(=C1)C(O)=O","-","7141","2095.0","m-aminobenzoic_acid","-","A73784","-","-","-","173.0 - 175.0","?C","174.0","Celsius"
"CC1=CC=C(C=C1N)[N+]([O-])=O","-","7166","2096.0","2-Methyl-5-nitroaniline","-","A73784","-","-","-","105.5 - 107.5","?C","106.0","Celsius"
"BrCC(=O)C1=CC=C(Br)C=C1","-","7174","2097.0","2-Bromo-1-(4-bromophenyl)ethanone","-","A73784","-","-","-","109.0 - 111.0","?C","110.0","Celsius"
"O(P(OC1=CC=CC=C1)OC1=CC=CC=C1)C1=CC=CC=C1","-","7259","2098.0","TRIPHENYL PHOSPHITE","-","A73784","-","-","-","23.0 - 25.0","?C","24.0","Celsius"
"CCCCCCCCCCCCCCCCC=C","-","7925","2099.0","1-OCTADECENE","-","A73784","-","-","-","16.0 - 18.0","?C","17.0","Celsius"
"OC(=O)C1=CC=CC=C1C=O","-","8099","2100.0","o-formyl_benzoic_acid","-","A73784","-","-","-","97.0 - 99.0","?C","98.0","Celsius"
"[O-][N+](=O)C1=CC=C(C=C1)C(Cl)=O","-","8188","2101.0","4-Nitrobenzoyl chloride","-","A73784","-","-","-","73.0 - 75.0","?C","74.0","Celsius"
"OC1=CC=C(C=O)C=C1O","-","8438","2102.0","3,4-Dihydroxybenzaldehyde","-","A73784","-","-","-","153.0 - 155.0","?C","154.0","Celsius"
"C1=CN=CC=N1","-","8904","2103.0","Pyrazine","-","A73784","-","-","-","53.0 - 55.0","?C","54.0","Celsius"
"CN[C@@H](C)[C@H](O)C1=CC=CC=C1","-","8935","2104.0","(1R,2S)-2-(methylamino)-1-phenylpropan-1-ol","-","A73784","-","-","-","34.0 - 36.0","?C","35.0","Celsius"
"O=C1CNC(=O)N1","-","9612","2106.0","hydantoin","-","A73784","-","-","-","220.0 - 222.0","?C","221.0","Celsius"
"CC1=CC(C)=C(C(O)=O)C(C)=C1","-","9779","2107.0","2,4,6-Trimethylbenzoic acid","-","A73784","-","-","-","152.0 - 154.0","?C","153.0","Celsius"
"CC1=CC(S)=C(S)C=C1","-","9910","2108.0","4-methylbenzene-1,2-dithiol","-","A73784","-","-","-","29.0 - 31.0","?C","30.0","Celsius"
"S=C=NC1=C2C=CC=CC2=CC=C1","-","10609","2109.0","1-ISOTHIOCYANATONAPHTHALENE","-","A73784","-","-","-","56.0 - 58.0","?C","57.0","Celsius"
"CC(=O)C1=CC=C(C=C1)C(O)=O","-","10986","2110.0","4-acetylbenzoic_acid","-","A73784","-","-","-","208.0 - 210.0","?C","209.0","Celsius"
"OC1=CC(Cl)=CC(Cl)=C1","-","11083","2111.0","3,5-Dichlorophenol","-","A73784","-","-","-","66.0 - 68.0","?C","67.0","Celsius"
"CC1=C(O)C=CC=C1O","-","11350","2112.0","2-Methylresorcinol","-","A73784","-","-","-","118.0 - 120.0","?C","119.0","Celsius"
"CC1=CC=C(C)C(=C1)C(O)=O","-","11399","2113.0","2,5-DIMETHYLBENZOIC ACID","-","A73784","-","-","-","132.0 - 134.0","?C","133.0","Celsius"
"OCC1=CC=CC=C1[N+]([O-])=O","-","11429","2114.0","2-nitrobenzyl_alcohol","-","A73784","-","-","-","72.0 - 74.0","?C","73.0","Celsius"
"NC1=C(Br)C=C(Br)C=C1","-","11509","2115.0","2,4-DIBROMOANILINE","-","A73784","-","-","-","78.0 - 80.0","?C","79.0","Celsius"
"[O-][N+](=O)C1=CC(CCl)=CC=C1","-","11581","2116.0","3-nitrobenzyl_chloride","-","A73784","-","-","-","45.0 - 47.0","?C","46.0","Celsius"
"COC(=O)C1=CC=C(Br)C=C1","-","11584","2117.0","Methyl 4-bromobenzoate","-","A73784","-","-","-","79.0 - 81.0","?C","80.0","Celsius"
"CC(=O)NC1=CC(O)=CC=C1","-","11626","2118.0","3-acetamidophenol","-","A73784","-","-","-","146.0 - 148.0","?C","147.0","Celsius"
"NC1=CC(Cl)=CC(Cl)=C1","-","11778","2119.0","3,5-Dichloroaniline","-","A73784","-","-","-","51.0 - 53.0","?C","52.0","Celsius"
"CCCCCCCBr","-","11863","2120.0","1-bromoheptane","-","A73784","-","-","-","-58.0 - -56.0","?C","-57.0","Celsius"
"CCCCCCCCI","-","11874","2121.0","1-IODOOCTANE","-","A73784","-","-","-","-46.0 - -44.0","?C","-45.0","Celsius"
"CCCCCCCCCCCCCCCCCCCCC","-","11897","2122.0","Henicosane","-","A73784","-","-","-","39.0 - 41.0","?C","40.0","Celsius"
"ClC1=CC=C(C=O)C(Cl)=C1","-","12830","2123.0","2,4-dichlorobenzaldehyde","-","A73784","-","-","-","71.0 - 73.0","?C","72.0","Celsius"
"C1CCC2=C(C1)NC1=CC=CC=C21","-","13075","2124.0","1,2,3,4-Tetrahydrocarbazole","-","A73784","-","-","-","118.0 - 120.0","?C","119.0","Celsius"
"N#CC1=C2C=CC=CC2=CC2=CC=CC=C12","-","13924","2125.0","anthracene-9-carbonitrile","-","A73784","-","-","-","175.0 - 177.0","?C","176.0","Celsius"
"IC1=CC=C(C=C1)C1=CC=CC=C1","-","14585","2126.0","4-IODOBIPHENYL","-","A73784","-","-","-","112.0 - 114.0","?C","113.0","Celsius"
"NC1=CC=C2C=CC3=CC=CC4=CC=C1C2=C34","-","14613","2127.0","pyren-1-amine","-","A73784","-","-","-","116.0 - 118.0","?C","117.0","Celsius"
"OC1CCCCCCCCCCC1","-","14836","2128.0","CYCLODODECANOL","-","A73784","-","-","-","76.0 - 78.0","?C","77.0","Celsius"
"CCCCCCCCCCC(C)=O","-","21153","2129.0","2-dodecanone","-","A73784","-","-","-","19.0 - 21.0","?C","20.0","Celsius"
"CC1=CC(N)=CC=C1Br","-","21844","2130.0","4-BROMO-3-METHYLANILINE","-","A73784","-","-","-","79.0 - 81.0","?C","80.0","Celsius"
"OC1=CC=C(CC#N)C=C1","-","24729","2131.0","4-hydroxybenzyl_cyanide","-","A73784","-","-","-","69.0 - 71.0","?C","70.0","Celsius"
"ClC(Br)Br","-","29036","2132.0","chlorodibromomethane","-","A73784","-","-","-","-22.0 - -20.0","?C","-21.0","Celsius"
"CC1=CC=CC(Cl)=C1Cl","-","31931","2133.0","2,3-DICHLOROTOLUENE","-","A73784","-","-","-","4.0 - 6.0","?C","5.0","Celsius"
"OCCCCCCCCCCO","-","34095","2134.0","Decane-1,10-diol","-","A73784","-","-","-","72.0 - 74.0","?C","73.0","Celsius"
"O=C(OC1=CC=C2C=CC=CC2=C1)C1=CC=CC=C1","-","60100","2135.0","2-Naphthyl benzoate","-","A73784","-","-","-","105.0 - 107.0","?C","106.0","Celsius"
"CC(C)(C)C1=CC=C(N)C=C1","-","63057","2136.0","4-tert-Butylaniline","-","A73784","-","-","-","15.0 - 17.0","?C","16.0","Celsius"
"CC1=CN=CN=C1","-","67424","2137.0","5-Methylpyrimidine","-","A73784","-","-","-","30.0 - 32.0","?C","31.0","Celsius"
"ClCC(CCl)(CCl)CCl","-","69160","2138.0","pentaerythrityl_tetrachloride","-","A73784","-","-","-","95.0 - 97.0","?C","96.0","Celsius"
"CC1=CC=C(C=C1Br)[N+]([O-])=O","-","74171","2139.0","2-Bromo-4-nitrotoluene","-","A73784","-","-","-","76.0 - 78.0","?C","77.0","Celsius"
"CC(Br)C(Br)C(O)=O","-","86082","2140.0","2,3-Dibromobutyric acid","-","A73784","-","-","-","85.0 - 87.0","?C","86.0","Celsius"
"COC1=CC=CC=C1C1=CC=CC=C1OC","-","531832","2141.0","2,2'-Dimethoxybiphenyl","-","A73784","-","-","-","154.0 - 156.0","?C","155.0","Celsius"
"SC1=NC2=C(S1)C=CC=C2","-","608157","2142.0","1,3-Benzothiazole-2-thiol","-","A73784","-","-","-","179.0 - 181.0","?C","180.0","Celsius"
"CC(=O)NC1=CC=C(Cl)C=C1F","-","745600","2143.0","4'-Chloro-2'-fluoroacetanilide","-","A73784","-","-","-","155.0 - 157.0","?C","156.0","Celsius"
"SC1=CC=CC=N1","-","2005897","2144.0","Pyridine-2-thiol","-","A73784","-","-","-","127.0 - 129.0","?C","128.0","Celsius"
"NC1=CC=C(C=C1N)[N+]([O-])=O","-","4286892","2145.0","4-nitrobenzene-1,2-diamine","-","A73784","-","-","-","199.0 - 201.0","?C","200.0","Celsius"
"CC(=O)O[C@@H]1C2=C(C)[C@H](C[C@@](O)([C@@H](OC(=O)C3=CC=CC=C3)[C@@H]3[C@@]4(CO[C@@H]4C[C@H](O)[C@@]3(C)C1=O)OC(C)=O)C2(C)C)OC(=O)[C@H](O)[C@@H](NC(=O)C1=CC=CC=C1)C1=CC=CC=C1","-","10368587","2146.0","(2alpha,5beta,7beta,10beta,13alpha)-4,10-diacetoxy-13-{[(2r,3s)-3-(benzoylamino)-2-hydroxy-3-phenylpropanoyl]oxy}-1,7-dihydroxy-9-oxo-5,20-epoxytax-11-en-2-yl benzoate","-","A73784","-","-","-","214.5 - 216.5","?C","216.0","Celsius"
"CCOC(=O)CCCCC(=O)OCC","-","13835108","2147.0","diethyl_adipate","-","A73784","-","-","-","-20.0 - -18.0","?C","-19.0","Celsius"
"CC(=O)C1=CC=C(Cl)C=C1","-","13835126","2148.0","4'-Chloroacetophenone","-","A73784","-","-","-","18.0 - 20.0","?C","19.0","Celsius"
"O=C1C2=CC=CC=C2C(=O)C2=CC=CC=C12","-","13835294","2149.0","anthraquinone","-","A73784","-","-","-","284.0 - 286.0","?C","285.0","Celsius"
"NC1=CC(N)=CC=C1","-","13836283","2150.0","m-Phenylenediamine","-","A73784","-","-","-","63.0 - 65.0","?C","64.0","Celsius"
"ClCC1=CC=CC=C1","-","13840690","2151.0","benzyl_chloride","-","A73784","-","-","-","-45.0 - -43.0","?C","-44.0","Celsius"
"[O-][N+](=O)C1=CC=C(F)C=C1","-","13856885","2152.0","1-Fluoro-4-nitrobenzene","-","A73784","-","-","-","21.0 - 23.0","?C","22.0","Celsius"
"ClC(Cl)(Cl)C#N","-","13861934","2153.0","Trichloroacetonitrile","-","A73784","-","-","-","-44.0 - -42.0","?C","-43.0","Celsius"
"CC1=CC(C)=C(Br)C=C1C","-","13875161","2154.0","5-Bromo-1,2,4-trimethylbenzene","-","A73784","-","-","-","71.0 - 73.0","?C","72.0","Celsius"
"N#CCC#N","-","13884495","2155.0","MALONONITRILE","-","A73784","-","-","-","32.0 - 34.0","?C","33.0","Celsius"
"COC1=CC=C(CO)C=C1","-","21105859","2156.0","4-methoxybenzyl_alcohol","-","A73784","-","-","-","24.0 - 26.0","?C","25.0","Celsius"
"NC1=C(Br)C=C(Br)C=C1Br","-","21106171","2157.0","2,4,6-TRIBROMOANILINE","-","A73784","-","-","-","120.0 - 122.0","?C","121.0","Celsius"
"FC(F)(F)C(=O)OC(=O)C(F)(F)F","-","21106178","2158.0","Trifluoroacetic anhydride","-","A73784","-","-","-","-65.0 - -63.0","?C","-64.0","Celsius"
"N#CCCC#N","-","21106481","2159.0","SUCCINONITRILE","-","A73784","-","-","-","54.0 - 56.0","?C","55.0","Celsius"
"CCOC1=CC=C(OCC)C=C1","-","21111774","2160.0","1,4-Diethoxybenzene","-","A73784","-","-","-","70.0 - 72.0","?C","71.0","Celsius"
"NC1=CC=CC(Cl)=C1Cl","-","21111810","2161.0","2,3-DICHLOROANILINE","-","A73784","-","-","-","22.0 - 24.0","?C","23.0","Celsius"
"BrC1=CC=CC=C1C=O","-","21111817","2162.0","o-Bromobenzaldehyde","-","A73784","-","-","-","20.0 - 22.0","?C","21.0","Celsius"
"COC1=CC=C(C=C1OC)C(C)=O","-","21168556","2163.0","3,4-DIMETHOXYACETOPHENONE","-","A73784","-","-","-","49.0 - 51.0","?C","50.0","Celsius"
"CC(N)=O","-","173","2164.0","acetamide","-","A73784","-","-","-","79.0 - 81.0","?C","80.0","Celsius"
"CC1=CC=CC=C1","-","1108","2165.0","Toluene","-","A73784","-","-","-","-95.0 - -93.0","?C","-94.0","Celsius"
"ClC1=CC=CC(Cl)=C1C#N","-","2923","2166.0","2,6-dichlorobenzonitrile","-","A73784","-","-","-","143.0 - 145.0","?C","144.0","Celsius"
"CC(C)O","-","3644","2168.0","2-Propanol","-","A73784","-","-","-","-90.0 - -88.0","?C","-89.0","Celsius"
"NC1=CC=CC=C1O","-","5596","2169.0","o-Aminophenol","-","A73784","-","-","-","174.0 - 176.0","?C","175.0","Celsius"
"ClCCl","-","6104","2170.0","Dichloromethane","-","A73784","-","-","-","-97.0 - -95.0","?C","-96.0","Celsius"
"CC1(C)C2CCC(C2)C1=C","-","6364","2171.0","2,2-Dimethyl-3-methylenebicyclo[2.2.1]heptane","-","A73784","-","-","-","50.0 - 52.0","?C","51.0","Celsius"
"NC1=CC=C(Cl)C=C1[N+]([O-])=O","-","6713","2172.0","4-CHLORO-2-NITROANILINE","-","A73784","-","-","-","116.0 - 118.0","?C","117.0","Celsius"
"CC1=CC=C(C=C1C)[N+]([O-])=O","-","7162","2173.0","1,2-Dimethyl-4-nitrobenzene","-","A73784","-","-","-","29.0 - 31.0","?C","30.0","Celsius"
"[O-][N+](=O)C1=CC=C(CCl)C=C1","-","7202","2174.0","1-(Chloromethyl)-4-nitrobenzene","-","A73784","-","-","-","71.0 - 73.0","?C","72.0","Celsius"
"CCCCC(=O)CC","-","7514","2175.0","Heptan-3-one","-","A73784","-","-","-","-39.0 - -37.0","?C","-38.0","Celsius"
"CCCCNCCCC","-","7856","2176.0","N-butylbutan-1-amine","-","A73784","-","-","-","-62.0 - -60.0","?C","-61.0","Celsius"
"CCCCCCCCCCCCO","-","7901","2177.0","Dodecan-1-ol","-","A73784","-","-","-","24.0 - 26.0","?C","25.0","Celsius"
"C1CCCCCCCCCCC1","-","8911","2178.0","CYCLODODECANE","-","A73784","-","-","-","59.0 - 61.0","?C","60.0","Celsius"
"OC1=CC=C(I)C=C1","-","10432","2179.0","4-Iodophenol","-","A73784","-","-","-","92.0 - 94.0","?C","93.0","Celsius"
"COC1=CC=CC=C1C(O)=O","-","10892","2180.0","o-anisic_acid","-","A73784","-","-","-","99.0 - 101.0","?C","100.0","Celsius"
"NC1=CC=CC(O)=C1","-","11080","2181.0","3-aminophenol","-","A73784","-","-","-","123.0 - 125.0","?C","124.0","Celsius"
"N#CC1=CC=C(C=C1)C#N","-","11672","2182.0","Terephthalonitrile","-","A73784","-","-","-","224.0 - 226.0","?C","225.0","Celsius"
"O=CC1=CC=C(C=O)C=C1","-","11673","2183.0","Terephthaldicarboxaldehyde","-","A73784","-","-","-","115.0 - 117.0","?C","116.0","Celsius"
"COC(=O)C1=CC(OC)=C(OC)C(OC)=C1","-","15161","2184.0","methyl_3,4,5-trimethoxybenzoate","-","A73784","-","-","-","83.0 - 85.0","?C","84.0","Celsius"
"CC(C)[C@@H]1CC[C@@H](C)C[C@H]1O","-","15803","2185.0","(1R,2S,5R)-2-Isopropyl-5-methylcyclohexanol","-","A73784","-","-","-","42.0 - 44.0","?C","43.0","Celsius"
"ClC1=CC(Cl)=C(Cl)C=C1C1=CC=CC=C1","-","25605","2186.0","2,4,5-TRICHLOROBIPHENYL","-","A73784","-","-","-","76.0 - 78.0","?C","77.0","Celsius"
"COC(=O)C1=CC=CC(=C1)[N+]([O-])=O","-","62472","2187.0","Methyl 3-nitrobenzoate","-","A73784","-","-","-","78.0 - 80.0","?C","79.0","Celsius"
"CC(=O)C1=CC=C(C=C1)C#N","-","66663","2188.0","4-acetylbenzonitrile","-","A73784","-","-","-","57.0 - 59.0","?C","58.0","Celsius"
"NC1=CC=C(CC#N)C=C1","-","69446","2189.0","4-aminobenzyl_cyanide","-","A73784","-","-","-","44.0 - 46.0","?C","45.0","Celsius"
"COC1=CC=C(\C=C\C)C=C1","-","553166","2191.0","1-methoxy-4-[(1E)-prop-1-en-1-yl]benzene","-","A73784","-","-","-","21.0 - 23.0","?C","22.0","Celsius"
"CCOC(=O)\C=C\C(=O)OCC","-","553702","2192.0","diethyl (2E)-but-2-enedioate","-","A73784","-","-","-","0.0 - 2.0","?C","1.0","Celsius"
"OC1=CC=CC(O)=C1O","-","13835557","2193.0","benzene-1,2,3-triol","-","A73784","-","-","-","132.0 - 134.0","?C","133.0","Celsius"
"CC(C)(C)C1=CC=C(O)C=C1","-","13846663","2194.0","4-tert-Butylphenol","-","A73784","-","-","-","98.0 - 100.0","?C","99.0","Celsius"
"OCCOC1=CC=CC=C1","-","13848467","2195.0","2-phenoxyethanol","-","A73784","-","-","-","12.0 - 14.0","?C","13.0","Celsius"
"COC(=O)C1=CC=CC=C1O","-","13848808","2196.0","methyl salicylate","-","A73784","-","-","-","-9.0 - -7.0","?C","-8.0","Celsius"
"BrCC1=CC=CC=C1","-","13851576","2197.0","(Bromomethyl)benzene","-","A73784","-","-","-","-4.0 - -2.0","?C","-3.0","Celsius"
"NC1=CC=CC=C1[N+]([O-])=O","-","13853943","2198.0","2-nitroaniline","-","A73784","-","-","-","71.0 - 73.0","?C","72.0","Celsius"
"[O-][N+](=O)C1=CC=CC=C1Cl","-","13853953","2199.0","1-Chloro-2-nitrobenzene","-","A73784","-","-","-","32.0 - 34.0","?C","33.0","Celsius"
"CCOC(=O)CC(C)=O","-","13865426","2200.0","ethyl 3-oxobutanoate","-","A73784","-","-","-","-45.0 - -43.0","?C","-44.0","Celsius"
"COC1=CC=C(N)C=C1","-","13869414","2201.0","4-METHOXYANILINE","-","A73784","-","-","-","57.0 - 59.0","?C","58.0","Celsius"
"NC1=CC(Cl)=CC=C1Cl","-","13869655","2202.0","2,5-Dichloroaniline","-","A73784","-","-","-","48.0 - 50.0","?C","49.0","Celsius"
"COC1=CC=C(C=O)C=C1","-","21105937","2203.0","p-Anisaldehyde","-","A73784","-","-","-","-1.0 - 1.0","?C","0.0","Celsius"
"CCOC(=O)C1=CC=CC=C1N","-","21106112","2204.0","Ethyl 2-aminobenzoate","-","A73784","-","-","-","13.0 - 15.0","?C","14.0","Celsius"
"CC(=O)\C=C\C1=CC=CC=C1","-","21106584","2205.0","trans-4-Phenyl-3-buten-2-one","-","A73784","-","-","-","40.0 - 42.0","?C","41.0","Celsius"
"C1=CC=C(C=C1)N=NC1=CC=CC=C1","-","2185","2206.0","(E)-Diphenyldiazene","-","A73784","-","-","-","67.0 - 69.0","?C","68.0","Celsius"
"OC1=NC=C(F)C(O)=N1","-","3268","2208.0","5-fluorouracil","-","A73784","-","-","-","281.0 - 283.0","?C","282.0","Celsius"
"CCCCC1C(=O)N(N(C1=O)C1=CC=CC=C1)C1=CC=CC=C1","-","4617","2209.0","Phenylbutazone","-","A73784","-","-","-","105.0 - 107.0","?C","106.0","Celsius"
"NC1=CC=C(C=C1)S(=O)(=O)NC1=CC=CC=N1","-","5145","2211.0","sulfapyridine","-","A73784","-","-","-","190.0 - 192.0","?C","191.0","Celsius"
"CN(C)C(=O)NC1=CC=CC=C1","-","7279","2212.0","fenuron","-","A73784","-","-","-","132.0 - 134.0","?C","133.0","Celsius"
"CCCCCCCCCCC=C","-","7891","2213.0","Dodec-1-ene","-","A73784","-","-","-","-37.0 - -35.0","?C","-36.0","Celsius"
"OC(=O)C1=CC=CC=C1[N+]([O-])=O","-","10616","2214.0","2-NITROBENZOIC ACID","-","A73784","-","-","-","146.0 - 148.0","?C","147.0","Celsius"
"[O-][N+](=O)C1=CC=CC=C1CC#N","-","11395","2215.0","(2-Nitrophenyl)acetonitrile","-","A73784","-","-","-","82.0 - 84.0","?C","83.0","Celsius"
"COC(=O)\C=C\C(=O)OC","-","553171","2216.0","dimethyl (2E)-but-2-enedioate","-","A73784","-","-","-","102.0 - 104.0","?C","103.0","Celsius"
"CC1=CC=C(C)C(O)=C1","-","13839128","2217.0","2,5-Dimethylphenol","-","A73784","-","-","-","74.0 - 76.0","?C","75.0","Celsius"
"OC1=CC=C(C=C1)C1=CC=CC=C1","-","13846658","2218.0","Biphenyl-4-ol","-","A73784","-","-","-","165.0 - 167.0","?C","166.0","Celsius"
"COC1=CC2=C(C=C1)N(C(=O)C1=CC=C(Cl)C=C1)C(C)=C2CC(O)=O","-","3584","2219.0","Indomethacin","-","A73784","-","-","-","158.0 - 160.0","?C","159.0","Celsius"
"OC1=CC(Cl)=C(Cl)C=C1","-","6988","2220.0","3,4-Dichlorophenol","-","A73784","-","-","-","66.0 - 68.0","?C","67.0","Celsius"
"COC1=CC=C(O)C=C1","-","8665","2221.0","4-Methoxyphenol","-","A73784","-","-","-","55.0 - 57.0","?C","56.0","Celsius"
"OC(=O)C1=CC(Br)=CC=C1","-","10972","2222.0","3-Bromobenzoic Acid","-","A73784","-","-","-","155.0 - 157.0","?C","156.0","Celsius"
"N(C1=CC=CC=C1)C1=CC=CC=C1","-","11003","2223.0","diphenylamine","-","A73784","-","-","-","52.0 - 54.0","?C","53.0","Celsius"
"BrC1=CC(Br)=CC(Br)=C1","-","11776","2224.0","1,3,5-Tribromobenzene","-","A73784","-","-","-","122.0 - 124.0","?C","123.0","Celsius"
"OC(=O)\C=C\C1=CC=CC=C1","-","392447","2225.0","(2E)-3-phenylacrylic acid","-","A73784","-","-","-","133.0 - 135.0","?C","134.0","Celsius"
"OC1=CC(Cl)=CC=C1","-","13875432","2226.0","3-Chlorophenol","-","A73784","-","-","-","32.0 - 34.0","?C","33.0","Celsius"
"CCC1(C(=O)NC(=O)NC1=O)C1=CC=CC=C1","-","4599","2227.0","Phenobarbital","-","A73784","-","-","-","174.0 - 176.0","?C","175.0","Celsius"
"NC(=O)C1=CC=CC=C1O","-","4963","2228.0","salicylamide","-","A73784","-","-","-","140.0 - 142.0","?C","141.0","Celsius"
"C1=CC=C(C=C1)C1=CC=CC=C1","-","6828","2229.0","biphenyl","-","A73784","-","-","-","69.0 - 71.0","?C","70.0","Celsius"
"OC1=CC=CC=C1[N+]([O-])=O","-","13837787","2230.0","2-nitrophenol","-","A73784","-","-","-","44.0 - 46.0","?C","45.0","Celsius"