"SMILES","CASRN","EXTERNALID","N","NAME","NAME","ARTICLEID","PUBMEDID","PAGE","TABLE","Melting Point {measured}","UNIT {Melting Point}","Melting Point {measured, converted}","UNIT {Melting Point}"
"CC1=CC(=CC=C1O)C1(OC(=O)C2=CC=CC=C12)C1=CC=C(O)C(C)=C1","-","62217","1130.0","o-Cresolphthalein","-","A73784","-","-","-","223.0 - 224.0","?C","224.0","Celsius"
"CCCCS(=O)(=O)CCCC","-","62236","1131.0","di-n-butyl sulfone","-","A73784","-","-","-","44.0 - 45.0","?C","44.5","Celsius"
"CC1=CC(O)=C2C=CC=CC2=N1","-","62307","1132.0","4-hydroxy-2-methylquinoline","-","A73784","-","-","-","234.0 - 235.0","?C","234.0","Celsius"
"OC(=O)C1=C(C=C(C=C1)[N+]([O-])=O)C(O)=O","-","62338","1133.0","4-Nitrophthalic acid","-","A73784","-","-","-","162.0 - 163.0","?C","162.0","Celsius"
"C(C1=CC=CC=C1)C1=CC=C(C=C1)C1=CC=CC=C1","-","62389","1134.0","4-BENZYLBIPHENYL","-","A73784","-","-","-","85.0 - 86.0","?C","85.5","Celsius"
"NC(=O)C1=CC(Cl)=CC=C1","-","62467","1135.0","3-Chlorobenzamide","-","A73784","-","-","-","135.0 - 136.0","?C","136.0","Celsius"
"CC1=CC=C(C=C1)C(=O)CBr","-","62483","1136.0","2-Bromo-4'-methylacetophenone","-","A73784","-","-","-","51.0 - 52.0","?C","51.5","Celsius"
"O=S(=O)(CC1=CC=CC=C1)CC1=CC=CC=C1","-","62493","1137.0","Dibenzyl sulfone","-","A73784","-","-","-","151.0 - 152.0","?C","152.0","Celsius"
"C(OC1=CC=C(OCC2=CC=CC=C2)C=C1)C1=CC=CC=C1","-","62525","1138.0","1,4-Dibenzyloxybenzene","-","A73784","-","-","-","127.0 - 128.0","?C","128.0","Celsius"
"NC(=O)OC1=CC=CC=C1","-","62532","1139.0","phenyl carbamate","-","A73784","-","-","-","150.0 - 151.0","?C","150.0","Celsius"
"CC(=O)OCCCCOC(C)=O","-","62618","1140.0","1,4-Diacetoxybutane","-","A73784","-","-","-","12.0 - 13.0","?C","12.5","Celsius"
"C1=CC=C(C=C1)C(=C(C1=CC=CC=C1)C1=CC=CC=C1)C1=CC=CC=C1","-","62645","1141.0","Tetraphenylethylene","-","A73784","-","-","-","224.0 - 225.0","?C","224.0","Celsius"
"OC(=O)C#CC1=CC=CC=C1","-","62682","1142.0","Phenylpropynoic acid","-","A73784","-","-","-","136.0 - 137.0","?C","136.0","Celsius"
"NC(=O)C1=C(F)C(F)=C(F)C(F)=C1F","-","62751","1143.0","2,3,4,5,6-Pentafluorobenzamide","-","A73784","-","-","-","147.0 - 148.0","?C","148.0","Celsius"
"O=C(C1=CC=CS1)C1=CC=CS1","-","62914","1144.0","Di-2-thienyl ketone","-","A73784","-","-","-","89.0 - 90.0","?C","89.5","Celsius"
"CC(=O)C1=CC=C(C=C1)C(F)(F)F","-","62931","1145.0","4'-(Trifluoromethyl)acetophenone","-","A73784","-","-","-","31.0 - 32.0","?C","31.5","Celsius"
"FC(F)(F)C1=CC=CC=C1C(=O)C1=CC=CC=C1","-","62963","1146.0","2-(Trifluoromethyl)benzophenone","-","A73784","-","-","-","60.0 - 61.0","?C","60.5","Celsius"
"COC1=CC(O)=CC=C1O","-","63180","1147.0","2-Methoxyhydroquinone","-","A73784","-","-","-","89.0 - 90.0","?C","89.5","Celsius"
"COC1=CC=C(C(C)=O)C(OC)=C1","-","63208","1148.0","2,4-Dimethoxyacetophenone","-","A73784","-","-","-","40.0 - 41.0","?C","40.5","Celsius"
"CN1C=CC(=O)N(C)C1=O","-","63310","1149.0","1,3-Dimethyluracil","-","A73784","-","-","-","120.0 - 121.0","?C","120.0","Celsius"
"COC1=CC=CC(C(O)=O)=C1O","-","63328","1150.0","2-Hydroxy-3-methoxybenzoic acid","-","A73784","-","-","-","151.0 - 152.0","?C","152.0","Celsius"
"CC1=CC=CC2=C1NC=C2","-","63459","1151.0","7-METHYLINDOLE","-","A73784","-","-","-","84.0 - 85.0","?C","84.5","Celsius"
"CC1=CC=C(OCC(O)=O)C=C1","-","63512","1152.0","4-Methylphenoxyacetic acid","-","A73784","-","-","-","140.0 - 141.0","?C","140.0","Celsius"
"CCOC(=O)C1=CC=C(O1)[N+]([O-])=O","-","63522","1153.0","Ethyl 5-nitro-2-furoate","-","A73784","-","-","-","100.0 - 101.0","?C","100.0","Celsius"
"C(OC1=CC=CC=C1)C1=CC=CC=C1","-","63533","1154.0","Benzyl phenyl ether","-","A73784","-","-","-","39.0 - 40.0","?C","39.5","Celsius"
"C1=CC=C(C=C1)C1=NN=C(N=C1C1=CC=CC=C1)C1=CC=CC=N1","-","63757","1155.0","5,6-diphenyl-3-(pyridin-2-yl)-1,2,4-triazine","-","A73784","-","-","-","191.0 - 192.0","?C","192.0","Celsius"
"NC1=CC=CC2=C1C=CN=C2","-","63931","1156.0","5-Aminoisoquinoline","-","A73784","-","-","-","128.0 - 129.0","?C","128.0","Celsius"
"[O-][N+](=O)C1=CC=C(C=C1)C(=O)C1=CC=CC=C1","-","64003","1157.0","4-Nitrobenzophenone","-","A73784","-","-","-","137.0 - 138.0","?C","138.0","Celsius"
"C1=CC=C(N=C1)C1=CC=CC(=N1)C1=CC=CC=N1","-","64012","1158.0","2,2':6',2''-TERPYRIDINE","-","A73784","-","-","-","90.0 - 91.0","?C","90.5","Celsius"
"OC1=CC=C(O)C(C=O)=C1","-","64111","1159.0","2,5-Dihydroxybenzaldehyde","-","A73784","-","-","-","98.0 - 99.0","?C","98.5","Celsius"
"BrCCCCOC1=CC=CC=C1","-","64147","1160.0","(4-Bromobutoxy)benzene","-","A73784","-","-","-","41.0 - 42.0","?C","41.5","Celsius"
"COC1=CC=C(OC)C(=C1)C(C)=O","-","64152","1161.0","2,5-Dimethoxyacetophenone","-","A73784","-","-","-","19.0 - 20.0","?C","19.5","Celsius"
"CCOC1=CC=C(C=C1)C(C)(C)COCC1=CC(OC2=CC=CC=C2)=CC=C1","-","64377","1162.0","1-{[2-(4-ethoxyphenyl)-2-methylpropoxy]methyl}-3-phenoxybenzene","-","A73784","-","-","-","36.0 - 37.0","?C","36.5","Celsius"
"OCC1=CC=CC=C1Br","-","65682","1163.0","o-Bromobenzyl alcohol","-","A73784","-","-","-","80.0 - 81.0","?C","80.5","Celsius"
"CC(OC1=CC=CC=C1Cl)C(O)=O","-","65694","1164.0","Propanoic acid, 2-(2-chlorophenoxy)-","-","A73784","-","-","-","113.0 - 114.0","?C","114.0","Celsius"
"OC(=O)CCC(=O)C1=CC=CC=C1","-","65703","1165.0","3-Benzoylpropionic acid","-","A73784","-","-","-","117.0 - 118.0","?C","118.0","Celsius"
"NC(=O)C1=CC=CC=C1C#N","-","65715","1166.0","2-Cyanobenzamide","-","A73784","-","-","-","172.0 - 173.0","?C","172.0","Celsius"
"O=C(NCC1=CC=CC=C1)C1=CC=CC=C1","-","66512","1167.0","N-Benzylbenzamide","-","A73784","-","-","-","105.0 - 106.0","?C","106.0","Celsius"
"OC(=O)C1=C(F)C=C(F)C=C1","-","66716","1168.0","2,4-Difluorobenzoic acid","-","A73784","-","-","-","188.0 - 189.0","?C","188.0","Celsius"
"ClC1=NC=CC=N1","-","66996","1169.0","2-Chloropyrimidine","-","A73784","-","-","-","66.0 - 67.0","?C","66.5","Celsius"
"C1CCC(CC1)NC1=CC=CC=C1","-","67145","1170.0","N-Cyclohexylaniline","-","A73784","-","-","-","15.0 - 16.0","?C","15.5","Celsius"
"NC(=O)C1=CC=C(C=C1)C(F)(F)F","-","67257","1171.0","4-(Trifluoromethyl)benzamide","-","A73784","-","-","-","184.0 - 185.0","?C","184.0","Celsius"
"FC1=CC=CC(F)=C1C#N","-","67268","1172.0","2,6-Difluorobenzonitrile","-","A73784","-","-","-","30.0 - 31.0","?C","30.5","Celsius"
"COC1=CC(=CC(O)=C1OC)C(O)=O","-","67282","1173.0","5-hydroxy-3,4-dimethoxybenzoic acid","-","A73784","-","-","-","195.0 - 196.0","?C","196.0","Celsius"
"CCCCCC(=O)OC(=O)CCCCC","-","67479","1174.0","Hexanoic anhydride","-","A73784","-","-","-","-41.0 - -40.0","?C","-40.5","Celsius"
"O=C(C1=CC=CC=C1)C1=CC=C(C=C1)C1=CC=CC=C1","-","67593","1175.0","4-Benzoylbiphenyl","-","A73784","-","-","-","100.0 - 101.0","?C","100.0","Celsius"
"ClC(=O)C1=CC2=CC=CC=C2C=C1","-","67790","1176.0","2-Naphthoyl chloride","-","A73784","-","-","-","50.0 - 51.0","?C","50.5","Celsius"
"COC1=CC=C(C=C1)N=C=S","-","67835","1177.0","4-Methoxyphenyl isothiocyanate","-","A73784","-","-","-","18.0 - 19.0","?C","18.5","Celsius"
"OC(=O)C(CC=C)C(O)=O","-","68265","1178.0","Allylmalonic acid","-","A73784","-","-","-","104.0 - 105.0","?C","104.0","Celsius"
"OCC1=CC=CC=C1C1=CC=CC=C1","-","68709","1179.0","2-Biphenylmethanol","-","A73784","-","-","-","49.0 - 50.0","?C","49.5","Celsius"
"OCC1=CC=C(C=C1)C(O)=O","-","68837","1180.0","4-(Hydroxymethyl)benzoic acid","-","A73784","-","-","-","181.0 - 182.0","?C","182.0","Celsius"
"ClC1=CC(I)=CC(Cl)=C1","-","68896","1181.0","1,3-Dichloro-5-iodobenzene","-","A73784","-","-","-","56.0 - 57.0","?C","56.5","Celsius"
"IC1=CC=C(C=C1)C#N","-","68939","1182.0","4-Iodobenzonitrile","-","A73784","-","-","-","125.0 - 126.0","?C","126.0","Celsius"
"O=CC1=CC=C(C=C1)C1=CC=CC=C1","-","69150","1183.0","Biphenyl-4-carboxaldehyde","-","A73784","-","-","-","59.0 - 60.0","?C","59.5","Celsius"
"[O-][N+](=O)C1=CC=CC(=C1)N=C=O","-","69290","1184.0","3-Nitrophenyl isocyanate","-","A73784","-","-","-","51.0 - 52.0","?C","51.5","Celsius"
"SC(C1=CC=CC=C1)(C1=CC=CC=C1)C1=CC=CC=C1","-","69703","1185.0","Triphenylmethyl mercaptan","-","A73784","-","-","-","105.0 - 106.0","?C","106.0","Celsius"
"NC1=NC=C(C=C1)[N+]([O-])=O","-","70280","1186.0","2-Amino-5-nitropyridine","-","A73784","-","-","-","187.0 - 188.0","?C","188.0","Celsius"
"O=CC1=CC=NC2=CC=CC=C12","-","70450","1187.0","Quinoline-4-carboxaldehyde","-","A73784","-","-","-","50.0 - 51.0","?C","50.5","Celsius"
"COC1=CC(=CC=C1O)C#N","-","70511","1188.0","4-Hydroxy-3-methoxybenzonitrile","-","A73784","-","-","-","86.0 - 87.0","?C","86.5","Celsius"
"N#CC1=CC2=C(OCO2)C=C1","-","70512","1189.0","Piperonylonitrile","-","A73784","-","-","-","93.0 - 94.0","?C","93.5","Celsius"
"CC(CO)(CO)C(O)=O","-","70865","1190.0","2,2-Bis(hydroxymethyl)propionic acid","-","A73784","-","-","-","189.0 - 190.0","?C","190.0","Celsius"
"COC1=C(C=O)C2=C(C=CC=C2)C=C1","-","71672","1191.0","2-Methoxy-1-naphthaldehyde","-","A73784","-","-","-","83.0 - 84.0","?C","83.5","Celsius"
"C=CS(=O)(=O)C1=CC=CC=C1","-","71964","1192.0","Phenyl vinyl sulfone","-","A73784","-","-","-","68.0 - 69.0","?C","68.5","Celsius"
"CCC(=O)C1=CC=C(O)C=C1O","-","72148","1193.0","2',4'-Dihydroxypropiophenone","-","A73784","-","-","-","99.0 - 100.0","?C","99.5","Celsius"
"NNC(=O)C1=CC=CC=C1Cl","-","72174","1194.0","2-Chlorobenzhydrazide","-","A73784","-","-","-","118.0 - 119.0","?C","118.0","Celsius"
"NC1=C(C=C(Cl)C=C1)C#N","-","72274","1195.0","2-amino-5-chlorobenzonitrile","-","A73784","-","-","-","96.0 - 97.0","?C","96.5","Celsius"
"CCOC(=O)C(C(=O)OCC)C(=O)OCC","-","72680","1196.0","Triethyl methanetricarboxylate","-","A73784","-","-","-","28.0 - 29.0","?C","28.5","Celsius"
"OC(=O)CC1=C(Cl)C=CC=C1Cl","-","73131","1197.0","2,6-Dichlorophenylacetic acid","-","A73784","-","-","-","159.0 - 160.0","?C","160.0","Celsius"
"C(CP(C1=CC=CC=C1)C1=CC=CC=C1)CP(C1=CC=CC=C1)C1=CC=CC=C1","-","73276","1198.0","1,3-Bis(diphenylphosphino)propane","-","A73784","-","-","-","60.0 - 61.0","?C","60.5","Celsius"
"NCCCN1CCN(CCCN)CC1","-","73658","1199.0","1,4-Bis(3-aminopropyl)piperazine","-","A73784","-","-","-","14.0 - 15.0","?C","14.5","Celsius"
"[O-][N+](=O)C1=CC=C(OC(Cl)=O)C=C1","-","74123","1200.0","4-Nitrophenyl carbonochloridate","-","A73784","-","-","-","78.0 - 79.0","?C","78.5","Celsius"
"CC1=CC=C(N)C=C1Br","-","74169","1201.0","3-Bromo-4-methylaniline","-","A73784","-","-","-","26.0 - 27.0","?C","26.5","Celsius"
"BrC1=CC=CC=C1C1=CC=CC=C1Br","-","74932","1202.0","2,2'-Dibromobiphenyl","-","A73784","-","-","-","80.0 - 81.0","?C","80.5","Celsius"
"CC(=O)OC1=CC=C(C=C1)C(C)=O","-","74935","1203.0","4'-Acetoxyacetophenone","-","A73784","-","-","-","53.0 - 54.0","?C","53.5","Celsius"
"C1COCCOC2=CC=CC=C2OCCOCCO1","-","75956","1204.0","Benzo-15-crown-5","-","A73784","-","-","-","79.0 - 80.0","?C","79.5","Celsius"
"ClC1=CC2=C(C=CN2)C=C1","-","78578","1205.0","6-CHLOROINDOLE","-","A73784","-","-","-","89.0 - 90.0","?C","89.5","Celsius"
"COC1=CC=C(Br)C(OC)=C1","-","78722","1206.0","1-Bromo-2,4-dimethoxybenzene","-","A73784","-","-","-","25.0 - 26.0","?C","25.5","Celsius"
"CC1=CCC(CC1O)C(C)(C)O","-","82589","1207.0","trans-p-Menth-6-ene-2,8-diol","-","A73784","-","-","-","130.0 - 131.0","?C","130.0","Celsius"
"CCCCCCCCCCC1=CC=C(N)C=C1","-","83338","1208.0","4-n-Decylaniline","-","A73784","-","-","-","24.0 - 25.0","?C","24.5","Celsius"
"COC1=CC(Cl)=CC=C1C(O)=O","-","84565","1209.0","4-chloro-2-methoxybenzoic_acid","-","A73784","-","-","-","146.0 - 147.0","?C","146.0","Celsius"
"CCCCCCC(O)C(O)=O","-","84994","1210.0","2-Hydroxyoctanoic acid","-","A73784","-","-","-","69.0 - 70.0","?C","69.5","Celsius"
"O=C1CCCCC1C1=CC=CC=C1","-","86285","1211.0","2-Phenylcyclohexanone","-","A73784","-","-","-","57.0 - 58.0","?C","57.5","Celsius"
"IC1=CC=C(C=O)C=C1","-","87265","1212.0","4-iodobenzaldehyde","-","A73784","-","-","-","77.0 - 78.0","?C","77.5","Celsius"
"CC1=C(C=C(C=C1[N+]([O-])=O)[N+]([O-])=O)C(O)=O","-","89258","1213.0","2-Methyl-3,5-dinitrobenzoic acid","-","A73784","-","-","-","205.0 - 206.0","?C","206.0","Celsius"
"OC(=O)C1=CC(F)=CC(F)=C1","-","91500","1214.0","3,5-Difluorobenzoic Acid","-","A73784","-","-","-","121.0 - 122.0","?C","122.0","Celsius"
"OC(=O)[C@@H]1CCCN1C(=O)OCC1=CC=CC=C1","-","92134","1215.0","N-benzyloxycarbonyl-L-proline","-","A73784","-","-","-","76.0 - 77.0","?C","76.5","Celsius"
"CC(=O)OCC(C(OC(C)=O)C1=CC=CC=C1)[N+]([O-])=O","-","96000","1216.0","1,3-Propanediol, 2-nitro-1-phenyl-, diacetate (e","-","A73784","-","-","-","70.0 - 71.0","?C","70.5","Celsius"
"OCC1CCCNC1","-","96573","1217.0","3-Piperidinemethanol","-","A73784","-","-","-","60.0 - 61.0","?C","60.5","Celsius"
"CC(C)CCC#C","-","121154","1218.0","5-Methyl-1-hexyne","-","A73784","-","-","-","-125.0 - -124.0","?C","-124.0","Celsius"
"CCCC1=CC=C(C=C1)C(O)=O","-","121262","1219.0","4-n-Propylbenzoic acid","-","A73784","-","-","-","142.0 - 143.0","?C","142.0","Celsius"
"OC(C=O)C(O)C(O)C(O)C(O)=O","-","134737","1221.0","D-Galacturonic acid","-","A73784","-","-","-","165.0 - 166.0","?C","166.0","Celsius"
"CCOC1=CC=C(I)C=C1","-","191427","1222.0","4-Iodophenetole","-","A73784","-","-","-","28.0 - 29.0","?C","28.5","Celsius"
"ClC1=CC=C(CC#N)C=C1","-","211145","1223.0","4-chlorobenzyl_cyanide","-","A73784","-","-","-","30.0 - 31.0","?C","30.5","Celsius"
"CC1=CC=C(CC(O)=O)C=C1","-","217532","1224.0","p-Tolylacetic Acid","-","A73784","-","-","-","92.0 - 93.0","?C","92.5","Celsius"
"CN1[C@H]2CC[C@@H]1CC(=O)C2","-","393722","1226.0","Tropinone","-","A73784","-","-","-","42.0 - 43.0","?C","42.5","Celsius"
"CC(C)CCCC(C)C1CCC2C3CC(O)C4(O)CC(O)CCC4(C)C3CCC12C","-","467749","1227.0","17-(1,5-dimethylhexyl)-10,13-dimethylperhydrocyclopenta[a]phenanthrene-3,5,6-triol","-","A73784","-","-","-","237.0 - 238.0","?C","238.0","Celsius"
"OC(=O)\C=C\C1=CC=C(Cl)C=C1","-","553383","1228.0","p-Chlorocinnamic acid","-","A73784","-","-","-","248.0 - 249.0","?C","248.0","Celsius"
"COC1=CC=C(\C=C\C(O)=O)C=C1","-","609479","1229.0","trans-4-Methoxycinnamic acid","-","A73784","-","-","-","173.0 - 174.0","?C","174.0","Celsius"
"NNC(=S)NC1=CC=CC=C1","-","638258","1230.0","4-Phenyl-3-thiosemicarbazide","-","A73784","-","-","-","138.0 - 139.0","?C","138.0","Celsius"
"OC(=O)\C=C\C1=CC=C(Br)C=C1","-","644222","1231.0","4-bromocinnamic_acid","-","A73784","-","-","-","262.0 - 263.0","?C","262.0","Celsius"
"O=C1CSC(=S)N1","-","1013337","1232.0","rhodanine","-","A73784","-","-","-","169.0 - 170.0","?C","170.0","Celsius"
"COC1=CC(CNC(=O)CCCC\C=C\C(C)C)=CC=C1O","-","1265957","1233.0","(6e)-n-(4-hydroxy-3-methoxybenzyl)-8-methylnon-6-enamide","-","A73784","-","-","-","65.0 - 66.0","?C","65.5","Celsius"
"O=C1CC(=O)NC(=S)N1","-","2005830","1234.0","2-thioxodihydropyrimidine-4,6(1H,5H)-dione","-","A73784","-","-","-","234.0 - 235.0","?C","234.0","Celsius"
"S=C1NCCS1","-","2005898","1235.0","2-Mercaptothiazoline","-","A73784","-","-","-","105.0 - 106.0","?C","106.0","Celsius"
"CCNC(=S)NCC","-","2016737","1237.0","N,N'-DIETHYLTHIOUREA","-","A73784","-","-","-","77.0 - 78.0","?C","77.5","Celsius"
"CC12CCC3C(CCC4(C)CC5(CCC34C)OCCO5)C1CCC2=O","-","2029531","1238.0","5,10,13-trimethyltetradecahydrospiro[cyclopenta[a]phenanthrene-3,2'-[1,3]dioxolan]-17(2h)-one","-","A73784","-","-","-","158.0 - 159.0","?C","158.0","Celsius"
"CC(=O)OC1CCC2(C)C(C1)CC(=O)C1C3CCC(=O)C3(C)CCC21","-","2029571","1239.0","7,17-dioxoandrostan-3-yl acetate","-","A73784","-","-","-","164.0 - 165.0","?C","164.0","Celsius"
"OC[C@@H](O)[C@H](O)[C@H](O)[C@@H](O)C=O","-","2301265","1240.0","D-galactose","-","A73784","-","-","-","166.0 - 167.0","?C","166.0","Celsius"
"OC1=C(O)C=C(C=C1)[N+]([O-])=O","-","2745027","1241.0","4-nitrocatechol","-","A73784","-","-","-","175.0 - 176.0","?C","176.0","Celsius"
"OC(=O)C1=CC(C=C)=CC=C1","-","3637837","1242.0","3-vinylbenzoic acid","-","A73784","-","-","-","95.0 - 96.0","?C","95.5","Celsius"
"CC\C=C\CC(O)=O","-","4445835","1243.0","trans-3-Hexenoic acid","-","A73784","-","-","-","11.0 - 12.0","?C","11.5","Celsius"
"OC1=CC=CC=C1C1=NC2=C(S1)C=CC=C2","-","10181821","1244.0","2-(2-Hydroxyphenyl)benzothiazole","-","A73784","-","-","-","131.0 - 132.0","?C","132.0","Celsius"
"OC[C@H](O)[C@H](O)[C@H](O)CO","-","10254628","1245.0","D-ribitol","-","A73784","-","-","-","102.0 - 103.0","?C","102.0","Celsius"
"OC1=CC=C(C=C1)\N=N\C1=CC=CC=C1","-","10296254","1246.0","4-Phenylazophenol","-","A73784","-","-","-","154.0 - 155.0","?C","154.0","Celsius"
"CC(=O)NC1=CC=CC=C1C","-","10298354","1247.0","2'-Methylacetanilide","-","A73784","-","-","-","110.0 - 111.0","?C","110.0","Celsius"
"[O-][N+](=O)CC(=O)NC1=CC=CC=C1","-","11279086","1248.0","2-nitro-n-phenylacetamide","-","A73784","-","-","-","93.0 - 94.0","?C","93.5","Celsius"
"CCCCOC(=O)CCCCCCCCC(=O)OCCCC","-","13837584","1249.0","Di-n-butyl sebacate","-","A73784","-","-","-","-11.0 - -10.0","?C","-10.5","Celsius"
"CC1=CC=CC(N)=C1C","-","13840647","1250.0","2,3-Dimethylaniline","-","A73784","-","-","-","2.0 - 3.0","?C","2.5","Celsius"
"O=C1OC2=CC=CC=C2C=C1","-","13848793","1251.0","Coumarin","-","A73784","-","-","-","70.0 - 71.0","?C","70.5","Celsius"
"CC1=CC=CC(C)=C1Cl","-","13875381","1252.0","2-Chloro-m-xylene","-","A73784","-","-","-","-36.0 - -35.0","?C","-35.5","Celsius"
"ClC1=C(Cl)C=C(Br)C=C1","-","13881395","1253.0","4-BROMO-1,2-DICHLOROBENZENE","-","A73784","-","-","-","24.0 - 25.0","?C","24.5","Celsius"
"CC(C)C1=CC=C(C)C(O)=C1","-","21105867","1254.0","5-Isopropyl-2-methylphenol","-","A73784","-","-","-","1.0 - 2.0","?C","1.5","Celsius"
"CC(C)C1=CC=C(CO)C=C1","-","21105932","1255.0","4-Isopropylbenzyl alcohol","-","A73784","-","-","-","27.0 - 28.0","?C","27.5","Celsius"
"OC(=O)C1=CC=CC=C1N=NC1=CC=C(O)C=C1","-","21106123","1256.0","2-[(4-hydroxyphenyl)diazenyl]benzoic acid","-","A73784","-","-","-","205.0 - 206.0","?C","206.0","Celsius"
"ClCC(=O)CCl","-","21106513","1257.0","1,3-Dichloroacetone","-","A73784","-","-","-","44.0 - 45.0","?C","44.5","Celsius"
"CN(C)C1=CC=C(C=C1)N(C)C","-","21106585","1258.0","N,N,N',N'-TETRAMETHYL-P-PHENYLENEDIAMINE","-","A73784","-","-","-","50.0 - 51.0","?C","50.5","Celsius"
"CNC1=CC=CC=C1C(=O)OC","-","21108245","1259.0","METHYL N-METHYLANTHRANILATE","-","A73784","-","-","-","18.0 - 19.0","?C","18.5","Celsius"
"COC1=CC(=CC=C1)C(C)=O","-","21111758","1260.0","3'-Methoxyacetophenone","-","A73784","-","-","-","-8.0 - -7.0","?C","-7.5","Celsius"
"CC1=CC=C(CCl)C=C1","-","21111850","1261.0","4-methyl_benzyl_chloride","-","A73784","-","-","-","4.0 - 5.0","?C","4.5","Celsius"
"COC1=CC(Cl)=CC=C1N","-","21159424","1262.0","4-Chloro-o-anisidine","-","A73784","-","-","-","51.0 - 52.0","?C","51.5","Celsius"
"OC1=CC=C(CC2=CC=CC=C2)C=C1","-","21159439","1263.0","4-Benzylphenol","-","A73784","-","-","-","83.0 - 84.0","?C","83.5","Celsius"
"COC(=O)C1=CC(OC)=CC(OC)=C1","-","21159597","1264.0","methyl_3,5-dimethoxybenzoate","-","A73784","-","-","-","42.0 - 43.0","?C","42.5","Celsius"
"CCOC(=O)CNC1=CC=CC=C1","-","21159611","1265.0","N-Phenylglycine ethyl ester","-","A73784","-","-","-","57.0 - 58.0","?C","57.5","Celsius"
"ClC1=CC(Cl)=C(Br)C=C1","-","21170125","1266.0","1-Bromo-2,4-dichlorobenzene","-","A73784","-","-","-","26.0 - 27.0","?C","26.5","Celsius"
"NC1=CC(OC2=CC=CC=C2)=CC=C1","-","21170956","1267.0","3-Phenoxyaniline","-","A73784","-","-","-","36.0 - 37.0","?C","36.5","Celsius"
"COC1=C(F)C(F)=C(F)C(F)=C1F","-","21171396","1268.0","2,3,4,5,6-Pentafluoroanisole","-","A73784","-","-","-","-38.0 - -37.0","?C","-37.5","Celsius"
"N#CC1=CC=CN=C1","-","78","1269.0","Nicotinonitrile","-","A73784","-","-","-","50.0 - 51.0","?C","50.5","Celsius"
"OC1=CC=C(C=O)C=C1","-","123","1270.0","4-hydroxybenzaldehyde","-","A73784","-","-","-","117.0 - 118.0","?C","118.0","Celsius"
"CC(C)=O","-","175","1271.0","Acetone","-","A73784","-","-","-","-95.0 - -94.0","?C","-94.5","Celsius"
"CCCCCCCCO","-","932","1272.0","1-octanol","-","A73784","-","-","-","-16.0 - -15.0","?C","-15.5","Celsius"
"NCCCNCCCCNCCCN","-","1072","1273.0","Spermine","-","A73784","-","-","-","28.0 - 29.0","?C","28.5","Celsius"
"C1=CC2=C(N=C1)C1=C(C=CC=N1)C=C2","-","1278","1274.0","1,10-phenanthroline, anhydrous","-","A73784","-","-","-","117.0 - 118.0","?C","118.0","Celsius"