"SMILES","CASRN","EXTERNALID","N","NAME","NAME","ARTICLEID","PUBMEDID","PAGE","TABLE","Melting Point {measured}","UNIT {Melting Point}","Melting Point {measured, converted}","UNIT {Melting Point}"
"CCCCCCCCCCC","-","13619","331.0","Undecane","-","A73784","-","-","-","-26.0 - -25.6","?C","-25.8","Celsius"
"CC(O)=O","-","171","332.0","acetic acid","-","A73784","-","-","-","16.6 - 17.0","?C","16.8","Celsius"
"FC1=C(F)C(F)=C(C#N)C(F)=C1F","-","63077","333.0","Pentafluorobenzonitrile","-","A73784","-","-","-","2.0 - 2.4","?C","2.2","Celsius"
"ClCC1=C(Cl)C=C(Cl)C=C1","-","6942","334.0","2,4-Dichlorobenzyl chloride","-","A73784","-","-","-","-3.0 - -2.6","?C","-2.8","Celsius"
"CC(C)(O)C#C","-","21106133","335.0","2-Methylbut-3-yn-2-ol","-","A73784","-","-","-","2.6 - 3.0","?C","2.8","Celsius"
"CC(C)C1=CC(=CC(=C1)C(C)C)C(C)C","-","12329","336.0","1,3,5-TRIISOPROPYLBENZENE","-","A73784","-","-","-","-7.4 - -7.0","?C","-7.2","Celsius"
"CC(C)(C)CCC(C)(C)C","-","13448","337.0","2,2,5,5-TETRAMETHYLHEXANE","-","A73784","-","-","-","-13.0 - -12.6","?C","-12.8","Celsius"
"CCCCC(=O)C1=CC=CC=C1","-","59482","338.0","Valerophenone","-","A73784","-","-","-","-9.4 - -9.0","?C","-9.2","Celsius"
"CC1=CC=CC=C1CC1=CC=CC=C1","-","62938","339.0","2-Methyldiphenylmethane","-","A73784","-","-","-","6.6 - 7.0","?C","6.8","Celsius"
"NCC1=CC=NC=C1","-","69736","340.0","4-(Aminomethyl)pyridine","-","A73784","-","-","-","-8.0 - -7.6","?C","-7.8","Celsius"
"OCCOCCO","-","13835180","341.0","DIETHYLENE GLYCOL","-","A73784","-","-","-","-10.4 - -10.0","?C","-10.2","Celsius"
"CCCCCCCCCCC1=CC=CC=C1","-","7430","342.0","DECYLBENZENE","-","A73784","-","-","-","-14.4 - -14.0","?C","-14.2","Celsius"
"NC1=CC(Cl)=CC=C1","-","13869451","343.0","3-chloroaniline","-","A73784","-","-","-","-10.4 - -10.0","?C","-10.2","Celsius"
"CCCCCCCCCCCC","-","7890","344.0","DODECANE","-","A73784","-","-","-","-10.0 - -9.6","?C","-9.8","Celsius"
"CN","-","6089","345.0","Methanamine","-","A73784","-","-","-","-93.4 - -93.0","?C","-93.2","Celsius"
"FC(F)(F)F","-","6153","346.0","Tetrafluoromethane","-","A73784","-","-","-","-184.0 - -183.6","?C","-184.0","Celsius"
"CC(C)CCCl","-","7605","347.0","1-CHLORO-3-METHYLBUTANE","-","A73784","-","-","-","-104.4 - -104.0","?C","-104.0","Celsius"
"CC(C)OC(C)=O","-","7627","348.0","Isopropyl acetate","-","A73784","-","-","-","-73.4 - -73.0","?C","-73.2","Celsius"
"CC(C)=C","-","7957","349.0","2-methylprop-1-ene","-","A73784","-","-","-","-140.4 - -140.0","?C","-140.0","Celsius"
"FC1=C(F)C(F)=C(C(F)=C1F)C(F)(F)F","-","9522","350.0","Octafluorotoluene","-","A73784","-","-","-","-66.0 - -65.6","?C","-65.8","Celsius"
"CCOC(Cl)=O","-","10465","351.0","ETHYL CHLOROFORMATE","-","A73784","-","-","-","-81.0 - -80.6","?C","-80.8","Celsius"
"CC(C)C(C)=C(C)C","-","10796","352.0","2,3,4-TRIMETHYL-2-PENTENE","-","A73784","-","-","-","-113.4 - -113.0","?C","-113.0","Celsius"
"CC(C)=C=C","-","11222","353.0","3-METHYL-1,2-BUTADIENE","-","A73784","-","-","-","-114.0 - -113.6","?C","-114.0","Celsius"
"CCC(CC)CC","-","11551","354.0","3-ETHYLPENTANE","-","A73784","-","-","-","-119.0 - -118.6","?C","-119.0","Celsius"
"CCCSSCCC","-","11871","355.0","Di-n-propyl disulfide","-","A73784","-","-","-","-86.0 - -85.6","?C","-85.8","Celsius"
"CCCCCCCCCCCCCCCCCCC(O)=O","-","12071","356.0","Nonadecanoic acid","-","A73784","-","-","-","69.0 - 69.4","?C","69.2","Celsius"
"NC(=O)C(Cl)Cl","-","12173","357.0","2,2-Dichloroacetamide","-","A73784","-","-","-","99.0 - 99.4","?C","99.2","Celsius"
"CC(C)(C)CC=C","-","12444","358.0","4,4-DIMETHYL-1-PENTENE","-","A73784","-","-","-","-137.0 - -136.6","?C","-137.0","Celsius"
"CCCCCCCC(C)C","-","12807","359.0","2-METHYLNONANE","-","A73784","-","-","-","-75.0 - -74.6","?C","-74.8","Celsius"
"CCC(C(C)C)C(C)C","-","13421","360.0","2,4-DIMETHYL-3-ETHYLPENTANE","-","A73784","-","-","-","-122.4 - -122.0","?C","-122.0","Celsius"
"CCC1CCCC1","-","14686","361.0","ETHYLCYCLOPENTANE","-","A73784","-","-","-","-138.4 - -138.0","?C","-138.0","Celsius"
"CC(C)C1=CC=CC=C1Cl","-","15532","362.0","o-Chlorocumene","-","A73784","-","-","-","-74.4 - -74.0","?C","-74.2","Celsius"
"CCCCCC(C)CC","-","15801","363.0","3-METHYLOCTANE","-","A73784","-","-","-","-108.0 - -107.6","?C","-108.0","Celsius"
"CC(C)C1CCCC1","-","18604","364.0","ISOPROPYLCYCLOPENTANE","-","A73784","-","-","-","-111.4 - -111.0","?C","-111.0","Celsius"
"CC1CCC(C)(C)C1","-","19413","365.0","1,1,3-trimethylcyclopentane","-","A73784","-","-","-","-142.4 - -142.0","?C","-142.0","Celsius"
"CC1(C)CCC=CC1","-","24634","366.0","4,4-DIMETHYLCYCLOHEXENE","-","A73784","-","-","-","-74.4 - -74.0","?C","-74.2","Celsius"
"CCC(C)(C)CC(C)C","-","26066","367.0","2,4,4-TRIMETHYLHEXANE","-","A73784","-","-","-","-113.4 - -113.0","?C","-113.0","Celsius"
"CC=CC=C","-","56020","368.0","1,trans-3-Pentadiene","-","A73784","-","-","-","-87.4 - -87.0","?C","-87.2","Celsius"
"FC(Br)(Br)Br","-","61026","369.0","Tribromofluoromethane","-","A73784","-","-","-","-74.0 - -73.6","?C","-73.8","Celsius"
"CC1=C(C)CCC1","-","63026","370.0","1,2-Dimethylcyclopentene","-","A73784","-","-","-","-90.4 - -90.0","?C","-90.2","Celsius"
"FC1(F)OC2=CC=CC(=C2O1)C1=CNC=C1C#N","-","77916","371.0","Fludioxonil","-","A73784","-","-","","199.4","?C","199.0","Celsius"
"CCC(Br)=C","-","81237","372.0","2-Bromo-1-butene","-","A73784","-","-","-","-133.4 - -133.0","?C","-133.0","Celsius"
"CC(C)CC#C","-","122546","373.0","4-Methyl-1-pentyne","-","A73784","-","-","-","-105.0 - -104.6","?C","-105.0","Celsius"
"CCC=CC(C)C","-","4509420","374.0","2-Methyl-trans-3-hexene","-","A73784","-","-","-","-142.0 - -141.6","?C","-142.0","Celsius"
"C=CCNCC=C","-","21106561","375.0","diallylamine","-","A73784","-","-","-","-88.4 - -88.0","?C","-88.2","Celsius"
"CCC","-","6094","376.0","Propane","-","A73784","-","-","-","-188.0 - -187.6","?C","-188.0","Celsius"
"CCCCBr","-","7711","377.0","1-bromobutane","-","A73784","-","-","-","-112.4 - -112.0","?C","-112.0","Celsius"
"C1CCC1","-","8894","378.0","CYCLOBUTANE","-","A73784","-","-","-","-91.0 - -90.6","?C","-90.8","Celsius"
"CCCCCCCCCCCCCCCCCCCC(O)=O","-","10035","379.0","Icosanoic acid","-","A73784","-","-","-","75.0 - 75.4","?C","75.2","Celsius"
"CCCCCI","-","11830","380.0","1-IODOPENTANE","-","A73784","-","-","-","-86.0 - -85.6","?C","-85.8","Celsius"
"CCCC=C(C)C","-","16689","381.0","2-METHYL-2-HEXENE","-","A73784","-","-","-","-130.4 - -130.0","?C","-130.0","Celsius"
"CCCC#CC","-","31016","382.0","2-HEXYNE","-","A73784","-","-","-","-90.0 - -89.6","?C","-89.8","Celsius"
"CCCC=CCC","-","4512648","383.0","trans-3-Heptene","-","A73784","-","-","-","-137.0 - -136.6","?C","-137.0","Celsius"
"CN1CCN(CC1)C1=NC2=CC(Cl)=CC=C2NC2=CC=CC=C12","-","10442628","384.0","Clozapine","-","A73784","-","-","-","183.5 - 183.9","?C","184.0","Celsius"
"CCC(Br)CBr","-","21171408","385.0","1,2-DIBROMOBUTANE","-","A73784","-","-","-","-65.4 - -65.0","?C","-65.2","Celsius"
"BrCC=C","-","7553","386.0","ALLYL BROMIDE","-","A73784","-","-","-","-119.4 - -119.0","?C","-119.0","Celsius"
"CCOC(C)=O","-","8525","387.0","Ethyl acetate","-","A73784","-","-","-","-84.0 - -83.6","?C","-83.8","Celsius"
"COC(C)(C)C","-","14672","388.0","2-Methoxy-2-methylpropane","-","A73784","-","-","-","-109.0 - -108.6","?C","-109.0","Celsius"
"CCBr","-","6092","389.0","bromoethane","-","A73784","-","-","-","-119.0 - -118.6","?C","-119.0","Celsius"
"CCO","-","682","390.0","Ethanol","-","A73784","-","-","-","-114.4 - -114.0","?C","-114.0","Celsius"
"CCC(O)=O","-","1005","391.0","Propionic Acid","-","A73784","-","-","-","-21.1 - -20.7","?C","-20.9","Celsius"
"CCC=CC","-","4483638","392.0","cis-2-Pentene","-","A73784","-","-","-","-151.41 - -151.0","?C","-151.0","Celsius"
"C1CC1","-","6111","393.0","Cyclopropane","-","A73784","-","-","-","-127.56 - -127.15","?C","-127.0","Celsius"
"CCCCCCC","-","8560","394.0","Heptane","-","A73784","-","-","-","-91.0 - -90.59","?C","-90.8","Celsius"
"CC1=CC=C(CC2=CC=CC=C2)C=C1","-","62501","395.0","4-Methyldiphenylmethane","-","A73784","-","-","-","4.58000000000004 - 5.0","?C","4.79","Celsius"
"C1CCOC1","-","7737","396.0","tetrahydrofuran","-","A73784","-","-","-","-108.44 - -108.0","?C","-108.0","Celsius"
"CCCCCCC=C","-","7833","397.0","1-Octene","-","A73784","-","-","-","-102.15 - -101.7","?C","-102.0","Celsius"
"CC1=CCCCC1","-","11086","398.0","1-methylcyclohexene","-","A73784","-","-","-","-120.45 - -120.0","?C","-120.0","Celsius"
"CCCCC=C","-","11109","399.0","Hex-1-ene","-","A73784","-","-","-","-140.15 - -139.7","?C","-140.0","Celsius"
"COC(=O)C(C)=C","-","6406","400.0","methyl methacrylate","-","A73784","-","-","-","-48.0 - -47.55","?C","-47.8","Celsius"
"C1=CC=C2C=NC=CC2=C1","-","8098","401.0","isoquinoline","-","A73784","-","-","-","26.0 - 26.47","?C","26.2","Celsius"
"CO","-","864","402.0","Methanol","-","A73784","-","-","-","-98.0 - -97.53","?C","-97.8","Celsius"
"CC(Br)CBr","-","6305","403.0","1,2-dibromopropane","-","A73784","-","-","-","-55.49 - -55.0","?C","-55.2","Celsius"
"OC1=CC(O)=CC(O)=C1","-","352","404.0","phloroglucinol, anhydrous","-","A73784","-","-","-","218.0 - 218.5","?C","218.0","Celsius"
"NCC(O)C1=CC=CC=C1","-","975","405.0","2-Amino-1-phenylethanol","-","A73784","-","-","-","56.5 - 57.0","?C","56.8","Celsius"
"OC(=O)C1=CC=CC=N1","-","993","406.0","2-Picolinic acid","-","A73784","-","-","-","136.5 - 137.0","?C","137.0","Celsius"
"NCCCCNCCCN","-","1071","407.0","N-(3-aminopropyl)butane-1,4-diamine","-","A73784","-","-","-","23.5 - 24.0","?C","23.8","Celsius"
"NC1=CC=NC=C1","-","1664","408.0","4-aminopyridine","-","A73784","-","-","-","158.5 - 159.0","?C","159.0","Celsius"
"COC1=CC(CC(O)=O)=CC=C1O","-","1675","409.0","Homovanillic acid","-","A73784","-","-","-","143.0 - 143.5","?C","143.0","Celsius"
"CC(=O)NCCCCCC(O)=O","-","1928","410.0","6-Acetamidohexanoic acid","-","A73784","-","-","-","104.0 - 104.5","?C","104.0","Celsius"
"CCCCCC1=CC2=C(C(O)=C1)C1=C(C=CC(C)=C1)C(C)(C)O2","-","2447","411.0","6,6,9-trimethyl-3-pentyl-6h-benzo[c]chromen-1-ol","-","A73784","-","-","-","76.5 - 77.0","?C","76.8","Celsius"
"CNC(=O)OC1=CC=CC2=C1OC(C)(C)C2","-","2468","412.0","Carbofuran","-","A73784","-","-","-","151.0 - 151.5","?C","151.0","Celsius"
"CC12CCC(CC1)C(C)(C)O2","-","2656","413.0","1,8-Cineole","-","A73784","-","-","-","1.0 - 1.5","?C","1.25","Celsius"
"CNC(=O)CSP(=S)(OC)OC","-","2973","414.0","o,o-dimethyl s-[2-(methylamino)-2-oxoethyl] phosphorodithioate","-","A73784","-","-","-","51.5 - 52.0","?C","51.8","Celsius"
"OC(=O)CC1=CC=C(C=C1)C1=CC=CC=C1","-","3215","415.0","4-BIPHENYLACETIC ACID","-","A73784","-","-","-","160.5 - 161.0","?C","161.0","Celsius"
"COP(=S)(OC)OC1=CC=C(SC)C(C)=C1","-","3229","416.0","o,o-dimethyl o-[3-methyl-4-(methylsulfanyl)phenyl] phosphorothioate","-","A73784","-","-","-","7.0 - 7.5","?C","7.25","Celsius"
"CC(C)C1=CC=C(C)C2=CC=C(C)C2=C1","-","3395","417.0","guaiazulene","-","A73784","-","-","-","31.5 - 32.0","?C","31.8","Celsius"
"OCC1=CNC2=CC=CC=C12","-","3581","418.0","INDOLE-3-METHANOL","-","A73784","-","-","-","97.5 - 98.0","?C","97.8","Celsius"
"OC(=O)CCC1=CNC2=CC=CC=C12","-","3613","419.0","Indole-3-propionic acid","-","A73784","-","-","-","134.0 - 134.5","?C","134.0","Celsius"
"COP(=S)(OC)OC1=CC=C(C=C1)[N+]([O-])=O","-","3987","420.0","o,o-dimethyl o-(4-nitrophenyl) phosphorothioate","-","A73784","-","-","-","35.5 - 36.0","?C","35.8","Celsius"
"CC(=O)NBr","-","4200","421.0","n-bromoacetamide","-","A73784","-","-","-","103.5 - 104.0","?C","104.0","Celsius"
"COC1=CC=C(CC2=NC=CC3=C2C=C(OC)C(OC)=C3)C=C1OC","-","4518","422.0","Papaverine","-","A73784","-","-","-","147.0 - 147.5","?C","147.0","Celsius"
"O=C1C(C(=O)C2=CC=CC=C12)C1=CC=CC=C1","-","4596","423.0","phenindione","-","A73784","-","-","-","149.5 - 150.0","?C","150.0","Celsius"
"CC(C)(C)C1=CC=C(C=C1)C(O)CCCN1CCC(CC1)C(O)(C1=CC=CC=C1)C1=CC=CC=C1","-","5212","424.0","Terfenadine","-","A73784","-","-","-","147.0 - 147.5","?C","147.0","Celsius"
"NS(=O)(=O)CC1=NOC2=C1C=CC=C2","-","5532","425.0","Zonisamide","-","A73784","-","-","-","161.5 - 162.0","?C","162.0","Celsius"
"CC1=CC=C(C=C1)N(CC1=NCCN1)C1=CC(O)=CC=C1","-","5571","426.0","Phentolamine","-","A73784","-","-","-","174.5 - 175.0","?C","175.0","Celsius"
"CCC1(C(=O)NC(=O)NC1=O)C1=CCCCC1","-","5632","427.0","cyclobarbital","-","A73784","-","-","-","172.5 - 173.0","?C","173.0","Celsius"
"CC1=CC(C)=NN1","-","5975","428.0","3,5-Dimethyl-1H-pyrazole","-","A73784","-","-","-","107.0 - 107.5","?C","107.0","Celsius"
"ClC(Cl)C(C1=CC=C(Cl)C=C1)C1=CC=C(Cl)C=C1","-","6057","429.0","1,1'-(2,2-dichloroethane-1,1-diyl)bis(4-chlorobenzene)","-","A73784","-","-","-","109.0 - 109.5","?C","109.0","Celsius"
"CC[N+]([O-])=O","-","6338","430.0","Nitroethane","-","A73784","-","-","-","-89.5 - -89.0","?C","-89.2","Celsius"
"CC(C)(O)C1CCC(C)(O)CC1","-","6399","431.0","Terpin","-","A73784","-","-","-","158.0 - 158.5","?C","158.0","Celsius"
"CC1=C(N)C2=C(C=C1)C(=O)C1=CC=CC=C1C2=O","-","6447","432.0","1-Amino-2-methyl-9,10-anthraquinone","-","A73784","-","-","-","205.0 - 205.5","?C","205.0","Celsius"
"CC1=CC=CC(C(O)=O)=C1O","-","6482","433.0","3-METHYLSALICYLIC ACID","-","A73784","-","-","-","165.0 - 165.5","?C","165.0","Celsius"
"ClC1=C(Cl)C(=O)C(C#N)=C(C#N)C1=O","-","6517","434.0","2,3-Dichloro-5,6-dicyanobenzoquinone","-","A73784","-","-","-","214.5 - 215.0","?C","215.0","Celsius"
"OC1=CC=CC=C1C(=O)NC1=CC=CC=C1","-","6610","435.0","salicylanilide","-","A73784","-","-","-","136.5 - 137.0","?C","137.0","Celsius"
"COC1=C(Cl)C=C(Cl)C=C1Cl","-","6620","436.0","1,3,5-Trichloro-2-methoxybenzene","-","A73784","-","-","-","61.0 - 61.5","?C","61.2","Celsius"
"CC(=O)C1=CC=CS1","-","6654","437.0","2-ACETYLTHIOPHENE","-","A73784","-","-","-","10.0 - 10.5","?C","10.2","Celsius"
"OC1=C(C=C(C=C1[N+]([O-])=O)[N+]([O-])=O)[N+]([O-])=O","-","6688","438.0","2,4,6-TRINITROPHENOL","-","A73784","-","-","-","122.0 - 122.5","?C","122.0","Celsius"
"NC1=NC(=NC(N)=N1)C1=CC=CC=C1","-","6797","439.0","BENZOGUANAMINE","-","A73784","-","-","-","226.5 - 227.0","?C","227.0","Celsius"
"CC1=CC=C2OC(=O)C=CC2=C1","-","6825","440.0","6-Methylcoumarin","-","A73784","-","-","-","76.0 - 76.5","?C","76.2","Celsius"
"O=C(OC(=O)C1=CC=CC=C1)C1=CC=CC=C1","-","6899","441.0","BENZOIC ANHYDRIDE","-","A73784","-","-","-","42.0 - 42.5","?C","42.2","Celsius"
"CCC(C)=NO","-","7020","442.0","N-hydroxybutan-2-imine","-","A73784","-","-","-","-30.0 - -29.5","?C","-29.8","Celsius"
"NC1=CC=CC(=C1)C(F)(F)F","-","7097","443.0","3-(Trifluoromethyl)aniline","-","A73784","-","-","-","5.5 - 6.0","?C","5.75","Celsius"
"ClC(=O)C1=CC(=CC=C1)C(Cl)=O","-","7171","444.0","Isophthaloyl dichloride","-","A73784","-","-","-","43.5 - 44.0","?C","43.8","Celsius"
"OCC1=CN=CC=C1","-","7229","445.0","3-pyridinemethanol","-","A73784","-","-","-","-7.0 - -6.5","?C","-6.75","Celsius"
"ClC1=CC=CC=C1NC1=NC(Cl)=NC(Cl)=N1","-","7260","446.0","4,6-Dichloro-N-(2-chlorophenyl)-1,3,5-triazin-2-amine","-","A73784","-","-","-","159.5 - 160.0","?C","160.0","Celsius"
"C=CC#N","-","7567","447.0","acrylonitrile","-","A73784","-","-","-","-84.0 - -83.5","?C","-83.8","Celsius"
"CC(C)(C)NC(=O)C=C","-","7589","448.0","N-TERT-BUTYLACRYLAMIDE","-","A73784","-","-","-","128.5 - 129.0","?C","129.0","Celsius"
"CC(C)CC(=O)CC(C)C","-","7670","449.0","2,6-DIMETHYL-4-HEPTANONE","-","A73784","-","-","-","-42.0 - -41.5","?C","-41.8","Celsius"
"BrC1CCCCC1","-","7672","450.0","bromocyclohexane","-","A73784","-","-","-","-57.0 - -56.5","?C","-56.8","Celsius"
"OC1=CN=CC=C1","-","7683","451.0","3-hydroxypyridine","-","A73784","-","-","-","127.0 - 127.5","?C","127.0","Celsius"
"ClC1=CC=CC=N1","-","7689","452.0","2-chloropyridine","-","A73784","-","-","-","-46.5 - -46.0","?C","-46.2","Celsius"
"CC(C)CCOC=O","-","7761","453.0","isoamyl_formate","-","A73784","-","-","-","-93.5 - -93.0","?C","-93.2","Celsius"
"CCSSCC","-","7786","454.0","DIETHYL DISULFIDE","-","A73784","-","-","-","-102.0 - -101.5","?C","-102.0","Celsius"
"ClCCOCCOCCCl","-","7879","455.0","1,2-BIS(2-CHLOROETHOXY)ETHANE","-","A73784","-","-","-","-32.0 - -31.5","?C","-31.8","Celsius"
"CC(=O)NNC1=CC=CC=C1","-","7951","456.0","N-Acetyl-N'-phenylhydrazine","-","A73784","-","-","-","129.5 - 130.0","?C","130.0","Celsius"
"CC1=CC(=CC(Br)=C1O)C1(OS(=O)(=O)C2=CC=CC=C12)C1=CC(C)=C(O)C(Br)=C1","-","7974","457.0","4,4'-(1,1-dioxido-3h-2,1-benzoxathiole-3,3-diyl)bis(2-bromo-6-methylphenol)","-","A73784","-","-","-","241.0 - 241.5","?C","241.0","Celsius"
"C1=CC2=CC=C(N=C2C=C1)C1=NC2=CC=CC=C2C=C1","-","8105","458.0","2,2'-BIQUINOLINE","-","A73784","-","-","-","194.5 - 195.0","?C","195.0","Celsius"
"OC1=CC=C(Cl)C=C1CC1=CC=CC=C1","-","8118","459.0","2-Benzyl-4-chlorophenol","-","A73784","-","-","-","48.0 - 48.5","?C","48.2","Celsius"
"CCC1=CC(O)=CC=C1C([O-])=O","-","8127","460.0","Ethyl p-hydroxybenzoate","-","A73784","-","-","","115.5","?C","116.0","Celsius"
"[O-][N+](=O)C1=C(Cl)C=CC(=C1)C(F)(F)F","-","8151","461.0","4-chloro-3-nitrobenzotrifluoride","-","A73784","-","-","-","-3.0 - -2.5","?C","-2.75","Celsius"
"CCOC1=CC(C=O)=CC=C1O","-","8154","462.0","3-ethoxy-4-hydroxybenzaldehyde","-","A73784","-","-","-","77.0 - 77.5","?C","77.2","Celsius"
"[O-][N+](=O)N1CN(CN(C1)[N+]([O-])=O)[N+]([O-])=O","-","8177","463.0","1,3,5-Trinitro-1,3,5-triazinane","-","A73784","-","-","-","205.0 - 205.5","?C","205.0","Celsius"
"OC1=CC(O)=C(C=C1)C(=O)C1=CC=C(O)C=C1O","-","8253","464.0","2,2',4,4'-Tetrahydroxybenzophenone","-","A73784","-","-","-","201.0 - 201.5","?C","201.0","Celsius"
"OC(=O)C1=C2C=CC=CC2=NC(=C1)C1=CC=CC=C1","-","8274","465.0","2-Phenylquinoline-4-carboxylic acid","-","A73784","-","-","-","214.5 - 215.0","?C","215.0","Celsius"
"OC(=O)CCI","-","8524","466.0","3-IODOPROPIONIC ACID","-","A73784","-","-","-","81.5 - 82.0","?C","81.8","Celsius"
"ClCCCCl","-","8543","467.0","1,3-dichloropropane","-","A73784","-","-","-","-100.0 - -99.5","?C","-99.8","Celsius"
"CC(C)C(O)C(C)(C)CO","-","8602","468.0","2,2,4-TRIMETHYL-1,3-PENTANEDIOL","-","A73784","-","-","-","51.5 - 52.0","?C","51.8","Celsius"
"C1=CC=C2C=NN=CC2=C1","-","8852","469.0","Phthalazine","-","A73784","-","-","-","90.5 - 91.0","?C","90.8","Celsius"
"O1C2=CC=CC=C2OC2=CC=CC=C12","-","8861","470.0","Oxanthrene","-","A73784","-","-","-","122.0 - 122.5","?C","122.0","Celsius"
"[O-][N+](=O)C1=CC(=CC=C1F)S(=O)(=O)C1=CC(=C(F)C=C1)[N+]([O-])=O","-","9028","471.0","Bis(4-fluoro-3-nitrophenyl) sulfone","-","A73784","-","-","-","193.5 - 194.0","?C","194.0","Celsius"
"FC(F)(F)C1=CC(Cl)=C(Cl)C=C1","-","9109","472.0","3,4-DICHLOROBENZOTRIFLUORIDE","-","A73784","-","-","-","-12.5 - -12.0","?C","-12.2","Celsius"
"NC(=O)C1=CN=C(N)C=C1","-","9128","473.0","6-Aminonicotinamide","-","A73784","-","-","-","246.5 - 247.0","?C","247.0","Celsius"
"CON(C)C(=O)NC1=CC=C(Cl)C(Cl)=C1","-","9130","474.0","linuron","-","A73784","-","-","-","93.0 - 93.5","?C","93.2","Celsius"
"CC(=O)NC1=CC=CC(=C1)C(F)(F)F","-","9219","476.0","3'-(trifluoromethyl)acetanilide","-","A73784","-","-","-","104.5 - 105.0","?C","105.0","Celsius"
"OC(=O)C(F)(F)C(F)(F)C(F)(F)F","-","9394","477.0","Heptafluorobutyric acid","-","A73784","-","-","-","-18.0 - -17.5","?C","-17.8","Celsius"
"OC(=O)C1=CC(=CC=C1)C(F)(F)F","-","9569","478.0","3-(Trifluoromethyl)benzoic acid","-","A73784","-","-","-","105.0 - 105.5","?C","105.0","Celsius"
"CC1=CC=C(C=C1)S(F)(=O)=O","-","9571","479.0","p-TOLUENESULFONYL FLUORIDE","-","A73784","-","-","-","41.0 - 41.5","?C","41.2","Celsius"
"CCOCOCC","-","9630","480.0","diethoxymethane","-","A73784","-","-","-","-66.5 - -66.0","?C","-66.2","Celsius"
"OC(=O)C1=CC=NC2=CC=CC=C12","-","9826","482.0","Quinoline-4-carboxylic acid","-","A73784","-","-","-","254.0 - 254.5","?C","254.0","Celsius"
"O=C1NC(=O)C2=NC=CN=C2N1","-","9832","483.0","2,4-DIHYDROXYPTERIDINE","-","A73784","-","-","-","348.0 - 348.5","?C","348.0","Celsius"
"O=CC1=CNC2=CC=CC=C12","-","9838","484.0","INDOLE-3-CARBOXALDEHYDE","-","A73784","-","-","-","196.5 - 197.0","?C","197.0","Celsius"
"OC(=O)C1=COC=C1","-","9849","485.0","3-FUROIC ACID","-","A73784","-","-","-","122.0 - 122.5","?C","122.0","Celsius"