"SMILES","CASRN","EXTERNALID","N","NAME","NAME","ARTICLEID","PUBMEDID","PAGE","TABLE","Melting Point {measured}","UNIT {Melting Point}","Melting Point {measured, converted}","UNIT {Melting Point}"
"CC1=CC=CC(C)=N1","-","13842613","1448.0","2,6-dimethylpyridine","-","A73784","-","-","-","-7.0 - -6.0","?C","-6.5","Celsius"
"CCOC(=O)CC#N","-","13856579","1449.0","ethyl_cyanoacetate","-","A73784","-","-","-","-23.0 - -22.0","?C","-22.5","Celsius"
"O=CC1=CC2=C(OCO2)C=C1","-","13859497","1450.0","piperonal","-","A73784","-","-","-","36.0 - 37.0","?C","36.5","Celsius"
"CC1=CC=C(N)C=C1C","-","13860491","1451.0","3,4-Dimethylaniline","-","A73784","-","-","-","50.0 - 51.0","?C","50.5","Celsius"
"ClC(=O)C1=CC=CO1","-","13861158","1452.0","2-Furoyl chloride","-","A73784","-","-","-","-2.0 - -1.0","?C","-1.5","Celsius"
"CCOC(=O)CCC(=O)OCC","-","13865630","1453.0","diethyl_succinate","-","A73784","-","-","-","-21.0 - -20.0","?C","-20.5","Celsius"
"COC1=CC(N)=CC=C1","-","13869480","1454.0","m-Anisidine","-","A73784","-","-","-","-1.0 - 0.0","?C","-0.5","Celsius"
"CN(C)C1=CC=C(Br)C=C1","-","13873600","1455.0","4-Bromo-N,N-dimethylaniline","-","A73784","-","-","-","54.0 - 55.0","?C","54.5","Celsius"
"CC1=CC=CC=C1Cl","-","13875281","1456.0","2-Chlorotoluene","-","A73784","-","-","-","-36.0 - -35.0","?C","-35.5","Celsius"
"CC1=CC=CC=C1Br","-","13875320","1457.0","2-Bromotoluene","-","A73784","-","-","-","-28.0 - -27.0","?C","-27.5","Celsius"
"COC1=CC(CC=C)=CC=C1O","-","13876103","1458.0","4-Allyl-2-methoxyphenol","-","A73784","-","-","-","-10.0 - -9.0","?C","-9.5","Celsius"
"N#CCCCCC#N","-","13876621","1459.0","1,4-Dicyanobutane","-","A73784","-","-","-","1.0 - 2.0","?C","1.5","Celsius"
"COC1=CC=CC=C1Br","-","13881329","1460.0","o-Bromoanisole","-","A73784","-","-","-","2.0 - 3.0","?C","2.5","Celsius"
"ClC(Cl)C1=CC=CC=C1","-","13882337","1461.0","a,a-dichlorotoluene","-","A73784","-","-","-","-17.0 - -16.0","?C","-16.5","Celsius"
"C(OCC1=CC=CC=C1)C1=CC=CC=C1","-","21105876","1462.0","benzyl_ether","-","A73784","-","-","-","3.0 - 4.0","?C","3.5","Celsius"
"[O-][N+](=O)C1=CC=C(F)C=C1F","-","21106036","1463.0","2,4-Difluoro-1-nitrobenzene","-","A73784","-","-","-","9.0 - 10.0","?C","9.5","Celsius"
"ClCCCCCCl","-","21106526","1464.0","1,5-dichloropentane","-","A73784","-","-","-","-73.0 - -72.0","?C","-72.5","Celsius"
"CC(=O)C1=CC=C(Cl)C=C1Cl","-","21106529","1465.0","2,4-Dichloroacetophenone","-","A73784","-","-","-","33.0 - 34.0","?C","33.5","Celsius"
"ClC1=CC=C(C=O)C=C1Cl","-","21106577","1466.0","3,4-DICHLOROBENZALDEHYDE","-","A73784","-","-","-","43.0 - 44.0","?C","43.5","Celsius"
"CCOCCOCCOCC","-","21106583","1467.0","1-Ethoxy-2-(2-ethoxyethoxy)ethane","-","A73784","-","-","-","-45.0 - -44.0","?C","-44.5","Celsius"
"COC1=CC(=CC=C1O)C(C)=O","-","21106900","1468.0","apocynin","-","A73784","-","-","-","114.0 - 115.0","?C","114.0","Celsius"
"COC(=O)C1=CC=C(OC)C=C1","-","21108577","1469.0","methyl_4-methoxybenzoate","-","A73784","-","-","-","49.0 - 50.0","?C","49.5","Celsius"
"CC(C)(O)C(C)(C)O","-","21109330","1470.0","PINACOL","-","A73784","-","-","-","43.0 - 44.0","?C","43.5","Celsius"
"ClC1=CC=CC=C1CC#N","-","21111776","1471.0","2-chlorobenzyl_cyanide","-","A73784","-","-","-","23.0 - 24.0","?C","23.5","Celsius"
"COC1=CC=CC=C1C=O","-","21111781","1472.0","o-Anisaldehyde","-","A73784","-","-","-","37.0 - 38.0","?C","37.5","Celsius"
"ClC1=CC=CC(C=O)=C1","-","21111819","1473.0","m-Chlorobenzaldehyde","-","A73784","-","-","-","17.0 - 18.0","?C","17.5","Celsius"
"[O-][N+](=O)C1=CC(Cl)=CC=C1Cl","-","21111865","1474.0","2,5-DICHLORONITROBENZENE","-","A73784","-","-","-","55.0 - 56.0","?C","55.5","Celsius"
"ClCC1=CC=CC=C1CCl","-","21111896","1475.0","a,a'-dichloro-o-xylene","-","A73784","-","-","-","55.0 - 56.0","?C","55.5","Celsius"
"CCOC(=O)C1=CC=C(OC)C=C1","-","21159425","1476.0","Ethyl 4-methoxybenzoate","-","A73784","-","-","-","7.0 - 8.0","?C","7.5","Celsius"
"COCC1=CC=CC=C1","-","21170543","1477.0","Benzyl methyl ether","-","A73784","-","-","-","-53.0 - -52.0","?C","-52.5","Celsius"
"ClC1=CC=C(Cl)C(I)=C1","-","21171496","1478.0","1,4-Dichloro-2-iodobenzene","-","A73784","-","-","-","21.0 - 22.0","?C","21.5","Celsius"
"[O-][N+](=O)C1=CC=C(Br)C=C1","-","21171513","1479.0","P-BROMONITROBENZENE","-","A73784","-","-","-","126.0 - 127.0","?C","126.0","Celsius"
"CC1=CC(Br)=C(C)C=C1","-","21171515","1480.0","2-Bromo-p-xylene","-","A73784","-","-","-","9.0 - 10.0","?C","9.5","Celsius"
"OC(=O)CC(O)(CC(O)=O)C(O)=O","-","305","1481.0","citric acid","-","A73784","-","-","-","153.0 - 154.0","?C","154.0","Celsius"
"CCC=O","-","512","1482.0","Propionaldehyde","-","A73784","-","-","-","-81.0 - -80.0","?C","-80.5","Celsius"
"CN(C)C1=CC=CC=C1","-","924","1483.0","n,n-dimethylaniline","-","A73784","-","-","-","2.0 - 3.0","?C","2.5","Celsius"
"CCCO","-","1004","1484.0","Propan-1-ol","-","A73784","-","-","-","-127.0 - -126.0","?C","-126.0","Celsius"
"CC1=CNC(=O)NC1=O","-","1103","1485.0","Thymine","-","A73784","-","-","-","316.0 - 317.0","?C","316.0","Celsius"
"OC1=CC=C(Cl)C(O)=C1","-","1668","1486.0","4-chlorobenzene-1,3-diol","-","A73784","-","-","-","106.0 - 107.0","?C","106.0","Celsius"
"BrCBr","-","2916","1488.0","dibromomethane","-","A73784","-","-","-","-53.0 - -52.0","?C","-52.5","Celsius"
"COC(F)(F)C(Cl)Cl","-","3973","1490.0","2,2-Dichloro-1,1-difluoroethyl methyl ether","-","A73784","-","-","-","-36.0 - -35.0","?C","-35.5","Celsius"
"CC1=NC=C(N1CCO)[N+]([O-])=O","-","4029","1491.0","2-(2-methyl-5-nitro-1h-imidazol-1-yl)ethanol","-","A73784","-","-","-","159.0 - 160.0","?C","160.0","Celsius"
"OC1=CC(O)=CC=C1","-","4878","1492.0","Resorcinol","-","A73784","-","-","-","110.0 - 111.0","?C","110.0","Celsius"
"COC1=NC(OC)=NC(NS(=O)(=O)C2=CC=C(N)C=C2)=C1","-","5132","1493.0","sulfadimethoxine","-","A73784","-","-","-","203.5 - 204.5","?C","204.0","Celsius"
"CCOC(N)=O","-","5439","1494.0","ETHYL CARBAMATE","-","A73784","-","-","-","48.0 - 49.0","?C","48.5","Celsius"
"OC(=O)C1=C(Cl)C=CC=C1Cl","-","5555","1495.0","2,6-DICHLOROBENZOIC ACID","-","A73784","-","-","-","143.0 - 144.0","?C","144.0","Celsius"
"C[C@]1(O)CC[C@H]2[C@@H]3CCC4=CC(=O)CC[C@]4(C)[C@H]3CC[C@]12C","-","5788","1496.0","17a-Methyltestosterone","-","A73784","-","-","-","163.0 - 164.0","?C","164.0","Celsius"
"CCCCCO","-","6040","1497.0","Pentan-1-ol","-","A73784","-","-","-","-79.0 - -78.0","?C","-78.5","Celsius"
"CC(C)Cl","-","6121","1498.0","2-chloropropane","-","A73784","-","-","-","-118.0 - -117.0","?C","-118.0","Celsius"
"CC(C)(C)O","-","6146","1499.0","2-Methylpropan-2-ol","-","A73784","-","-","-","25.0 - 26.0","?C","25.5","Celsius"
"CCC(C)(C)C","-","6163","1500.0","2,2-Dimethylbutane","-","A73784","-","-","-","-100.0 - -99.0","?C","-99.5","Celsius"
"CC(=O)C(C)(C)C","-","6176","1501.0","3,3-dimethylbutan-2-one","-","A73784","-","-","-","-53.0 - -52.0","?C","-52.5","Celsius"
"CCC(C)=O","-","6321","1502.0","Butan-2-one","-","A73784","-","-","-","-87.0 - -86.0","?C","-86.5","Celsius"
"OC(=O)C=C","-","6333","1503.0","acrylic_acid","-","A73784","-","-","-","12.5 - 13.5","?C","13.0","Celsius"
"CC(C)C(C)C","-","6340","1504.0","2,3-Dimethylbutane","-","A73784","-","-","-","-129.0 - -128.0","?C","-128.0","Celsius"
"CC(C)C(O)=O","-","6341","1505.0","isobutyric acid","-","A73784","-","-","-","-47.0 - -46.0","?C","-46.5","Celsius"
"ClC(Cl)C(Cl)Cl","-","6342","1506.0","1,1,2,2-Tetrachloroethane","-","A73784","-","-","-","-44.0 - -43.0","?C","-43.5","Celsius"
"CC1=CC=CC(C)=C1[N+]([O-])=O","-","6420","1507.0","1,3-dimethyl-2-nitrobenzene","-","A73784","-","-","-","15.0 - 16.0","?C","15.5","Celsius"
"OC(=O)C1=CC=CC=C1I","-","6675","1508.0","2-IODOBENZOIC ACID","-","A73784","-","-","-","162.0 - 163.0","?C","162.0","Celsius"
"CC(C)C1=CC=CC=C1O","-","6677","1509.0","2-Isopropylphenol","-","A73784","-","-","-","15.0 - 16.0","?C","15.5","Celsius"
"OC1=CC=CC2=C1C=CC=C2","-","6739","1510.0","1-naphthol","-","A73784","-","-","-","95.0 - 96.0","?C","95.5","Celsius"
"CCC(=O)C1=CC=CC=C1","-","6881","1511.0","propiophenone","-","A73784","-","-","-","18.0 - 19.0","?C","18.5","Celsius"
"CCOC(=O)C(=O)OCC","-","6998","1512.0","DIETHYL OXALATE","-","A73784","-","-","-","-41.0 - -40.0","?C","-40.5","Celsius"
"CC1=CC(C)=C(C)C=C1C","-","6999","1513.0","1,2,4,5-Tetramethylbenzene","-","A73784","-","-","-","79.0 - 80.0","?C","79.5","Celsius"
"CCC(=O)CC","-","7016","1514.0","Pentan-3-one","-","A73784","-","-","-","-40.0 - -39.0","?C","-39.5","Celsius"
"[O-][N+](=O)C1=CC=CC=C1","-","7138","1515.0","nitrobenzene","-","A73784","-","-","-","5.0 - 6.0","?C","5.5","Celsius"
"[O-][N+](=O)C1=CC(=CC=C1)[N+]([O-])=O","-","7172","1516.0","1,3-Dinitrobenzene","-","A73784","-","-","-","89.0 - 90.0","?C","89.5","Celsius"
"ON=C1CCCCC1","-","7236","1517.0","N-hydroxycyclohexanimine","-","A73784","-","-","-","89.0 - 90.0","?C","89.5","Celsius"
"CCCN(CCC)CCC","-","7334","1518.0","N,N-dipropylpropan-1-amine","-","A73784","-","-","-","-94.0 - -93.0","?C","-93.5","Celsius"
"CCCC1=CC=CC=C1","-","7385","1519.0","Propylbenzene","-","A73784","-","-","-","-100.0 - -99.0","?C","-99.5","Celsius"
"CCNC1=CC=CC=C1","-","7387","1520.0","n-ethylaniline","-","A73784","-","-","-","-64.0 - -63.0","?C","-63.5","Celsius"
"COC=O","-","7577","1521.0","methyl formate","-","A73784","-","-","-","-100.0 - -99.0","?C","-99.5","Celsius"
"CC(=C)CC(C)(C)C","-","7580","1522.0","2,4,4-Trimethylpent-1-ene","-","A73784","-","-","-","-94.0 - -93.0","?C","-93.5","Celsius"
"CC1CCCCC1","-","7674","1523.0","Methylcyclohexane","-","A73784","-","-","-","-127.0 - -126.0","?C","-126.0","Celsius"
"ClC1=CC=CC=C1","-","7676","1524.0","chlorobenzene","-","A73784","-","-","-","-46.0 - -45.0","?C","-45.5","Celsius"
"CCCCN","-","7716","1525.0","butan-1-amine","-","A73784","-","-","-","-50.0 - -49.0","?C","-49.5","Celsius"
"CCCCCCCCC","-","7849","1526.0","Nonane","-","A73784","-","-","-","-54.0 - -53.0","?C","-53.5","Celsius"
"CCCCCCCCN","-","7851","1527.0","1-Octylamine","-","A73784","-","-","-","-1.0 - 0.0","?C","-0.5","Celsius"
"CCCCCCCCCCO","-","7882","1528.0","Decan-1-ol","-","A73784","-","-","-","6.0 - 7.0","?C","6.5","Celsius"
"CCCCCCCCCCCCCCCCCCCC","-","7929","1529.0","Icosane","-","A73784","-","-","-","36.0 - 37.0","?C","36.5","Celsius"
"OC(=O)C(C1=CC=CC=C1)C1=CC=CC=C1","-","8030","1530.0","diphenylacetic acid","-","A73784","-","-","-","146.0 - 147.0","?C","146.0","Celsius"
"OC(=O)CCCCCCC(O)=O","-","10025","1531.0","SUBERIC ACID","-","A73784","-","-","-","143.0 - 144.0","?C","144.0","Celsius"
"CC(C)(C)Cl","-","10054","1532.0","2-Chloro-2-methylpropane","-","A73784","-","-","-","-26.0 - -25.0","?C","-25.5","Celsius"
"[CH:1]1=[CH:1][CH:1]=[C:1]([CH:1]=[CH:1]1)C(C1=CC=CC=C1)C1=CC=CC=C1","-","10169","1533.0","1,1',1''-methanetriyltribenzene","-","A73784","-","-","-","93.0 - 94.0","?C","93.5","Celsius"
"CCC(C)=C","-","10766","1534.0","2-Methylbut-1-ene","-","A73784","-","-","-","-138.0 - -137.0","?C","-138.0","Celsius"
"CCCCCCCCCCCCCCCCC","-","11892","1535.0","HEPTADECANE","-","A73784","-","-","-","21.0 - 22.0","?C","21.5","Celsius"
"CCCCCCCCCCCCCCCCCCC","-","11895","1536.0","NONADECANE","-","A73784","-","-","-","32.0 - 33.0","?C","32.5","Celsius"
"CCCCCCCCCCCCC=C","-","13622","1537.0","Tetradec-1-ene","-","A73784","-","-","-","-13.0 - -12.0","?C","-12.5","Celsius"
"OC(=O)C1=CC(=CC=C1Cl)[N+]([O-])=O","-","16359","1539.0","2-chloro-5-nitrobenzoic_acid","-","A73784","-","-","-","166.0 - 167.0","?C","166.0","Celsius"
"NCCCCCCO","-","18801","1540.0","6-Aminohexan-1-ol","-","A73784","-","-","-","56.0 - 57.0","?C","56.5","Celsius"
"COC1=CC=C(Cl)C(Cl)=C1Cl","-","37440","1542.0","2,3,4-Trichloroanisole","-","A73784","-","-","-","69.0 - 70.0","?C","69.5","Celsius"
"NC1=NC=C2N=CN(COCCO)C2=N1","-","49900","1543.0","6-Deoxyacyclovir","-","A73784","-","-","-","188.0 - 189.0","?C","188.0","Celsius"
"CCC(C)(C)Cl","-","55090","1544.0","2-chloro-2-methylbutane","-","A73784","-","-","-","-74.0 - -73.0","?C","-73.5","Celsius"
"[O-][N+](=O)C1=CC=C(CC#N)C=C1","-","61672","1545.0","p-Nitrophenylacetonitrile","-","A73784","-","-","-","116.0 - 117.0","?C","116.0","Celsius"
"COC1=CC(C=O)=CC(OC)=C1","-","73763","1546.0","3,5-Dimethoxybenzaldehyde","-","A73784","-","-","-","46.0 - 47.0","?C","46.5","Celsius"
"O=CC=CC1=CC=CC=C1","-","553117","1547.0","(2E)-3-phenylacrylaldehyde","-","A73784","-","-","-","-8.0 - -7.0","?C","-7.5","Celsius"
"NC1=CC(=CC=C1O)[N+]([O-])=O","-","2848685","1548.0","2-amino-4-nitrophenol","-","A73784","-","-","-","143.0 - 144.0","?C","144.0","Celsius"
"CC1=CC=C(N)C=C1","-","13835151","1549.0","p-Toluidine","-","A73784","-","-","-","43.0 - 44.0","?C","43.5","Celsius"
"ClCC=C","-","13836674","1550.0","3-chloroprop-1-ene","-","A73784","-","-","-","-135.0 - -134.0","?C","-134.0","Celsius"
"BrC(Br)Br","-","13838404","1551.0","bromoform","-","A73784","-","-","-","8.0 - 9.0","?C","8.5","Celsius"
"CCOCCOC(C)=O","-","13839109","1552.0","2-Ethoxyethyl acetate","-","A73784","-","-","-","-62.0 - -61.0","?C","-61.5","Celsius"
"COC(=O)C1=CC=C(C=C1)C(=O)OC","-","13863300","1553.0","DIMETHYL TEREPHTHALATE","-","A73784","-","-","-","141.0 - 142.0","?C","142.0","Celsius"
"CC1=CC=C(Cl)C=C1","-","13875160","1554.0","1-Chloro-4-methylbenzene","-","A73784","-","-","-","7.0 - 8.0","?C","7.5","Celsius"
"COC1=CC=C(C=O)C=C1OC","-","21106008","1555.0","3,4-Dimethoxybenzaldehyde","-","A73784","-","-","-","43.0 - 44.0","?C","43.5","Celsius"
"CC1=CC(O)=CC(C)=C1Cl","-","21106017","1556.0","4-chloro-3,5-dimethylphenol","-","A73784","-","-","-","114.0 - 115.0","?C","114.0","Celsius"
"CC1=CC(O)=CC=C1Cl","-","21106018","1557.0","4-Chloro-3-methylphenol","-","A73784","-","-","-","66.0 - 67.0","?C","66.5","Celsius"
"ClCCCCCl","-","21106032","1558.0","1,4-DICHLOROBUTANE","-","A73784","-","-","-","-38.0 - -37.0","?C","-37.5","Celsius"
"CCCCO","-","258","1559.0","Butan-1-ol","-","A73784","-","-","-","-90.0 - -89.0","?C","-89.5","Celsius"
"CCCCCCCCCC(O)=O","-","2863","1563.0","Decanoic acid","-","A73784","-","-","-","31.0 - 32.0","?C","31.5","Celsius"
"ClC1=CC=CC(Cl)=C1C=O","-","6481","1565.0","2,6-Dichlorobenzaldehyde","-","A73784","-","-","-","70.5 - 71.5","?C","71.0","Celsius"
"COC1=C(OC)C=C(C=C1)C(O)=O","-","6854","1566.0","3,4-DIMETHOXYBENZOIC ACID","-","A73784","-","-","-","180.0 - 181.0","?C","180.0","Celsius"
"OC1=CC=C(C=O)C(O)=C1","-","6943","1567.0","2,4-DIHYDROXYBENZALDEHYDE","-","A73784","-","-","-","135.0 - 136.0","?C","136.0","Celsius"
"CCC#N","-","7566","1568.0","Propiononitrile","-","A73784","-","-","-","-93.0 - -92.0","?C","-92.5","Celsius"
"NC1CCCCC1","-","7677","1569.0","Cyclohexanamine","-","A73784","-","-","-","-18.0 - -17.0","?C","-17.5","Celsius"
"CCCCC=O","-","7772","1570.0","Valeraldehyde","-","A73784","-","-","-","-92.0 - -91.0","?C","-91.5","Celsius"
"OC(=O)C1=CC(=CC=C1)[N+]([O-])=O","-","8183","1571.0","3-nitrobenzoic acid","-","A73784","-","-","-","141.0 - 142.0","?C","142.0","Celsius"
"OC1=CC=C2C=CC=CC2=C1","-","8341","1572.0","2-naphthol","-","A73784","-","-","-","122.0 - 123.0","?C","122.0","Celsius"
"C1=CC=C2C(=C1)C1=CC=CC3=C1C2=CC=C3","-","8800","1573.0","Fluoranthene","-","A73784","-","-","-","107.5 - 108.5","?C","108.0","Celsius"
"O=C1C2=CC=CC=C2C2=CC=CC=C12","-","9824","1574.0","9-Fluorenone","-","A73784","-","-","-","83.0 - 84.0","?C","83.5","Celsius"
"CCNC1=NC(NC(C)(C)C)=NC(SC)=N1","-","12874","1576.0","Terbutryn","-","A73784","-","-","-","104.0 - 105.0","?C","104.0","Celsius"
"[O-][N+](=O)C1=C(Cl)C(Cl)=C(Cl)C=C1","-","26691","1577.0","2,3,4-TRICHLORONITROBENZENE","-","A73784","-","-","-","55.0 - 56.0","?C","55.5","Celsius"
"CC1=CC=C(C=C1N=C=O)N=C=O","-","13835351","1578.0","2,4-Diisocyanato-1-methylbenzene","-","A73784","-","-","-","20.0 - 21.0","?C","20.5","Celsius"
"OC1=CC=CC=C1O","-","13837760","1579.0","Pyrocatechol","-","A73784","-","-","-","105.0 - 106.0","?C","106.0","Celsius"
"CC1=CC(O)=CC=C1","-","21105871","1580.0","m-cresol","-","A73784","-","-","-","11.0 - 12.0","?C","11.5","Celsius"
"ClC1=CC(Cl)=C(Cl)C(Cl)=C1Cl","-","21106570","1581.0","pentachlorobenzene","-","A73784","-","-","-","85.0 - 86.0","?C","85.5","Celsius"
"CN(C)C(=O)NC1=CC(Cl)=C(Cl)C=C1","-","3008","1583.0","diuron","-","A73784","-","-","-","158.0 - 159.0","?C","158.0","Celsius"
"CC(C)CCC[C@@H](C)[C@H]1CC[C@H]2[C@@H]3CC=C4C[C@@H](O)CC[C@]4(C)[C@H]3CC[C@]12C","-","5775","1586.0","Cholesterol","-","A73784","-","-","-","148.0 - 149.0","?C","148.0","Celsius"
"C1C2=CC=CC=C2OC2=CC=CC=C12","-","6840","1587.0","XANTHENE","-","A73784","-","-","-","100.5 - 101.5","?C","101.0","Celsius"
"CN(C)C1=CC=C(C=O)C=C1","-","7199","1588.0","4-(dimethylamino)benzaldehyde","-","A73784","-","-","-","74.0 - 75.0","?C","74.5","Celsius"
"CC(=O)NS(=O)(=O)C1=CC=C(N)C=C1","-","5129","1590.0","Sulfacetamide","-","A73784","-","-","-","182.0 - 183.0","?C","182.0","Celsius"
"BrC1=CC=C(Br)C=C1","-","13868640","1592.0","1,4-dibromobenzene","-","A73784","-","-","-","87.0 - 88.0","?C","87.5","Celsius"
"ClC1=CC(Cl)=C(Cl)C=C1Cl","-","21106163","1593.0","1,2,4,5-Tetrachlorobenzene","-","A73784","-","-","-","139.0 - 140.0","?C","140.0","Celsius"
"C1=CC=CC=C1","-","236","1594.0","Benzene","-","A73784","-","-","-","5.0 - 6.0","?C","5.5","Celsius"
"CC(=O)NC1=CC=CC=C1","-","880","1595.0","acetanilide","-","A73784","-","-","-","114.0 - 115.0","?C","114.0","Celsius"
"CCCOC(=O)C1=CC=C(O)C=C1","-","6907","1597.0","Propyl 4-hydroxybenzoate","-","A73784","-","-","-","96.0 - 97.0","?C","96.5","Celsius"
"SCC1=CC=CC=C1","-","13851383","1599.0","BENZYL MERCAPTAN","-","A73784","-","-","-","-30.0 - -29.0","?C","-29.5","Celsius"
"O=C1CCC1","-","13840","1600.0","CYCLOBUTANONE","-","A73784","-","-","-","-52.0 - -50.9","?C","-51.5","Celsius"
"ClC1=CC=C(C=C1)S(=O)(=O)C1=CC=C(Cl)C=C1","-","6373","1601.0","Bis(4-chlorophenyl) sulfone","-","A73784","-","-","-","147.9 - 149.0","?C","148.0","Celsius"
"CC1=CC(=CC(C)=C1)C(O)=O","-","9929","1602.0","3,5-DIMETHYLBENZOIC ACID","-","A73784","-","-","-","170.0 - 171.1","?C","171.0","Celsius"
"C(CC1CCNCC1)CC1CCNCC1","-","77230","1603.0","1,3-bis(4-piperidinyl)propane","-","A73784","-","-","-","66.0 - 67.1","?C","66.5","Celsius"
"CC(C)C(C)=O","-","10777","1604.0","3-Methyl-2-butanone","-","A73784","-","-","-","-93.1 - -92.0","?C","-92.5","Celsius"
"CCCC(C)=O","-","7607","1605.0","PENTAN-2-ONE","-","A73784","-","-","-","-78.0 - -76.9","?C","-77.5","Celsius"
"CC1(C)C2CCC(C)(C2)C1=O","-","13869","1606.0","(1R)-(-)-Fenchone","-","A73784","-","-","-","5.0 - 6.1","?C","5.55","Celsius"
"ICI","-","6106","1607.0","Diiodomethane","-","A73784","-","-","-","5.0 - 6.1","?C","5.55","Celsius"
"COC1=CC=CC=C1[N+]([O-])=O","-","6781","1608.0","1-Methoxy-2-nitrobenzene","-","A73784","-","-","-","9.4 - 10.5","?C","9.95","Celsius"
"OC1=CC=CC=C1F","-","9326","1609.0","2-Fluorophenol","-","A73784","-","-","-","15.0 - 16.1","?C","15.6","Celsius"
"O=C(C1=CC=CC=C1)C1=CC=CC=C1","-","2991","1610.0","benzophenone","-","A73784","-","-","-","47.9 - 49.0","?C","48.5","Celsius"
"OC1=CC=CC=C1","-","971","1611.0","Phenol","-","A73784","-","-","-","40.9 - 42.0","?C","41.5","Celsius"
"CCCCCC=C","-","11121","1612.0","1-Heptene","-","A73784","-","-","-","-120.15 - -119.0","?C","-120.0","Celsius"
"CCCCCCCC(O)=O","-","370","1613.0","octanoic acid","-","A73784","-","-","-","15.85 - 17.0","?C","16.4","Celsius"
"CC1=CC(C)=C(CC(O)=O)C(C)=C1","-","70500","1614.0","Mesitylacetic acid","-","A73784","-","-","-","167.85 - 169.0","?C","168.0","Celsius"
"CCCC","-","7555","1615.0","Butane","-","A73784","-","-","-","-138.34 - -137.15","?C","-138.0","Celsius"
"O=C1OC(=O)C2=CC=CC=C12","-","6552","1616.0","phthalic anhydride","-","A73784","-","-","-","130.8 - 132.0","?C","131.0","Celsius"
"BrC=C","-","11151","1617.0","Bromoethene","-","A73784","-","-","-","-139.0 - -137.8","?C","-138.0","Celsius"
"OC(=O)CCCCC(O)=O","-","191","1618.0","adipic acid","-","A73784","-","-","-","152.0 - 153.2","?C","153.0","Celsius"
"OC(C1=CC=CC=C1)(C1=CC=CC=C1)C1=CC=CC=C1","-","6215","1619.0","TRIPHENYLMETHANOL","-","A73784","-","-","-","163.0 - 164.2","?C","164.0","Celsius"
"NC1=CC=C(C=C1)C(O)=O","-","953","1620.0","4-Aminobenzoic acid","-","A73784","-","-","-","187.8 - 189.0","?C","188.0","Celsius"