"SMILES","CASRN","EXTERNALID","N","NAME","NAME","ARTICLEID","PUBMEDID","PAGE","TABLE","Melting Point {measured}","UNIT {Melting Point}","Melting Point {measured, converted}","UNIT {Melting Point}"
"C1CC2=CC=CC=C2NC2=CC=CC=C12","-","9886","486.0","Iminodibenzyl","-","A73784","-","-","-","106.5 - 107.0","?C","107.0","Celsius"
"O=C1OCC=C1","-","9917","487.0","2(5H)-FURANONE","-","A73784","-","-","-","4.0 - 4.5","?C","4.25","Celsius"
"NC1=CC=CC=N1","-","10008","488.0","2-Aminopyridine","-","A73784","-","-","-","57.5 - 58.0","?C","57.8","Celsius"
"CC(C)C1=CC=CC=C1C","-","10253","489.0","1-Methyl-2-isopropylbenzene","-","A73784","-","-","-","-72.0 - -71.5","?C","-71.8","Celsius"
"[O-][N+](=O)C1=CC=CC=C1[N+]([O-])=O","-","10257","490.0","O-DINITROBENZENE","-","A73784","-","-","-","118.0 - 118.5","?C","118.0","Celsius"
"C(SCC1=CC=CC=C1)C1=CC=CC=C1","-","10407","491.0","Dibenzyl sulfide","-","A73784","-","-","-","49.0 - 49.5","?C","49.2","Celsius"
"CCCCCCCCCCCCCC(=O)CCCCCCCCCCCCC","-","10490","492.0","14-HEPTACOSANONE","-","A73784","-","-","-","77.5 - 78.0","?C","77.8","Celsius"
"C1C=CC=CC=C1","-","10534","493.0","cycloheptatriene","-","A73784","-","-","-","-80.0 - -79.5","?C","-79.8","Celsius"
"O=C1C=CC2=CC=CC3=C2C1=CC=C3","-","10582","494.0","1H-Phenalen-1-one","-","A73784","-","-","-","154.0 - 154.5","?C","154.0","Celsius"
"CC(C)C=C","-","10765","495.0","3-Methyl-1-Butene","-","A73784","-","-","-","-168.5 - -168.0","?C","-168.0","Celsius"
"COC1=CC=C(C(O)=O)C(OC)=C1OC","-","10833","496.0","2,3,4-TRIMETHOXYBENZOIC ACID","-","A73784","-","-","-","100.5 - 101.0","?C","101.0","Celsius"
"BrC1=CC2=CC=CC=C2C2=C1C=CC=C2","-","10834","497.0","9-Bromophenanthrene","-","A73784","-","-","-","64.0 - 64.5","?C","64.2","Celsius"
"BrCCN1C(=O)C2=CC=CC=C2C1=O","-","10848","498.0","N-(2-BROMOETHYL)PHTHALIMIDE","-","A73784","-","-","-","82.0 - 82.5","?C","82.2","Celsius"
"CCCC(=O)CC","-","11025","499.0","3-Hexanone","-","A73784","-","-","-","-55.5 - -55.0","?C","-55.2","Celsius"
"CC(C)(C)N=C=S","-","11057","500.0","tert-Butyl isothiocyanate","-","A73784","-","-","-","10.0 - 10.5","?C","10.2","Celsius"
"CC1CCC=CC1","-","11084","501.0","4-METHYLCYCLOHEXENE","-","A73784","-","-","-","-115.5 - -115.0","?C","-115.0","Celsius"
"CCCCOC=O","-","11125","502.0","n-Butyl formate","-","A73784","-","-","-","-92.0 - -91.5","?C","-91.8","Celsius"
"CCCCCCCCCCCCCCCCCCCCCCCCCCC","-","11146","503.0","n-Heptacosane","-","A73784","-","-","-","59.0 - 59.5","?C","59.2","Celsius"
"CCC(O)(CC)CC","-","11210","504.0","3-ethyl-3-pentanol","-","A73784","-","-","-","-13.0 - -12.5","?C","-12.8","Celsius"
"COC(=O)C(Cl)(Cl)Cl","-","11246","505.0","METHYL TRICHLOROACETATE","-","A73784","-","-","-","-18.0 - -17.5","?C","-17.8","Celsius"
"[O-][N+](=O)C1=CC=C2CCC3=CC=CC1=C23","-","11276","506.0","5-Nitro-1,2-dihydroacenaphthylene","-","A73784","-","-","-","103.0 - 103.5","?C","103.0","Celsius"
"CC(=O)OC1=CC=CC=C1[N+]([O-])=O","-","11397","507.0","o-nitrophenyl_acetate","-","A73784","-","-","-","40.0 - 40.5","?C","40.2","Celsius"
"CCOC(=O)C1=CC=CO1","-","11485","508.0","ETHYL 2-FUROATE","-","A73784","-","-","-","34.0 - 34.5","?C","34.2","Celsius"
"CC1=CC(=O)OC1=O","-","11517","509.0","Citraconic anhydride","-","A73784","-","-","-","7.5 - 8.0","?C","7.75","Celsius"
"CC(=O)N[C@@H](CS)C(O)=O","-","11540","510.0","N-Acetyl-L-cysteine","-","A73784","-","-","-","109.5 - 110.0","?C","110.0","Celsius"
"CCC1=CC=C(C=C1)C(O)=O","-","11589","511.0","4-ETHYLBENZOIC ACID","-","A73784","-","-","-","112.5 - 113.0","?C","113.0","Celsius"
"CN(C)C1=CC=C(C=C1)C(O)=O","-","11595","512.0","4-(Dimethylamino)benzoic acid","-","A73784","-","-","-","242.5 - 243.0","?C","243.0","Celsius"
"OC(COC1=CC=CC=C1)COC1=CC=CC=C1","-","11641","513.0","1,3-Diphenoxy-2-propanol","-","A73784","-","-","-","81.5 - 82.0","?C","81.8","Celsius"
"CC1=CC=C(C=C1)N=C=S","-","11650","514.0","p-Tolyl isothiocyanate","-","A73784","-","-","-","25.0 - 25.5","?C","25.2","Celsius"
"CCOC1=CC=C(O)C=C1","-","11651","515.0","4-Ethoxyphenol","-","A73784","-","-","-","66.0 - 66.5","?C","66.2","Celsius"
"CCCCOC","-","11833","516.0","methyl_butyl_ether","-","A73784","-","-","-","-115.5 - -115.0","?C","-115.0","Celsius"
"CCCOCC","-","11835","517.0","ethyl_propyl_ether","-","A73784","-","-","-","-127.5 - -127.0","?C","-127.0","Celsius"
"CCCCCCCCl","-","11865","518.0","1-chloroheptane","-","A73784","-","-","-","-70.0 - -69.5","?C","-69.8","Celsius"
"CCCCCCCCCCCCCCCCCCCCCCCCCCCCCCCCCCCC","-","11906","519.0","n-Hexatriacontane","-","A73784","-","-","-","76.0 - 76.5","?C","76.2","Celsius"
"CC[Si](CC)(CC)CC","-","11919","520.0","TETRAETHYLSILANE","-","A73784","-","-","-","-82.5 - -82.0","?C","-82.2","Celsius"
"CC(=O)OC1=CC=CC=C1OC(C)=O","-","11969","521.0","Catechol diacetate","-","A73784","-","-","-","64.0 - 64.5","?C","64.2","Celsius"
"CC1=CC(C)=C(C)C(O)=C1","-","12244","522.0","2,3,5-Trimethylphenol","-","A73784","-","-","-","93.5 - 94.0","?C","93.8","Celsius"
"[O-][N+](=O)C1=CC=C(O1)C=O","-","12249","523.0","5-NITRO-2-FURALDEHYDE","-","A73784","-","-","-","35.5 - 36.0","?C","35.8","Celsius"
"CC1=CC(C)=C(C)C(C)=C1C","-","12259","524.0","pentamethylbenzene","-","A73784","-","-","-","54.0 - 54.5","?C","54.2","Celsius"
"C1CC2=CC=CC=C2C2=CC=CC=C12","-","12515","525.0","9,10-DIHYDROPHENANTHRENE","-","A73784","-","-","-","34.0 - 34.5","?C","34.2","Celsius"
"O=P(C1=CC=CC=C1)(C1=CC=CC=C1)C1=CC=CC=C1","-","12549","526.0","TRIPHENYLPHOSPHINE OXIDE","-","A73784","-","-","-","156.0 - 156.5","?C","156.0","Celsius"
"OC(=O)C12CC3CC(CC(C3)C1)C2","-","12680","527.0","Adamantane-1-carboxylic acid","-","A73784","-","-","-","174.5 - 175.0","?C","175.0","Celsius"
"CC(=O)OC1=CC=CC2=C1C=CC=C2","-","12691","528.0","1-Naphthyl acetate","-","A73784","-","-","-","44.5 - 45.0","?C","44.8","Celsius"
"CCCCCC(=O)CCCCC","-","12972","529.0","6-UNDECANONE","-","A73784","-","-","-","14.5 - 15.0","?C","14.8","Celsius"
"CCC1=CC=CC(C)=C1C","-","13032","530.0","1,2-DIMETHYL-3-ETHYLBENZENE","-","A73784","-","-","-","-50.0 - -49.5","?C","-49.8","Celsius"
"NNC(=O)C1=CC=CC=C1O","-","13048","531.0","2-Hydroxybenzhydrazide","-","A73784","-","-","-","148.0 - 148.5","?C","148.0","Celsius"
"CC(OC1=CC=CC=C1)C(O)=O","-","13069","532.0","2-Phenoxypropionic acid","-","A73784","-","-","-","117.5 - 118.0","?C","118.0","Celsius"
"N1C2=C(C=C1C1=CC=CC=C1)C=CC=C2","-","13105","533.0","2-Phenylindole","-","A73784","-","-","-","190.0 - 190.5","?C","190.0","Celsius"
"CC(C)(C)CC(O)=O","-","13438","534.0","3,3-DIMETHYLBUTYRIC ACID","-","A73784","-","-","-","6.0 - 6.5","?C","6.25","Celsius"
"CC(C)(C)CC(C)(C)C","-","13439","535.0","2,2,4,4-TETRAMETHYLPENTANE","-","A73784","-","-","-","-67.0 - -66.5","?C","-66.8","Celsius"
"NC1=CC=C(C=C1)C(=O)C1=CC=CC=C1","-","13707","536.0","4-Aminobenzophenone","-","A73784","-","-","-","122.5 - 123.0","?C","123.0","Celsius"
"CCCCCCCCCCCCOC(=O)C1=CC(O)=C(O)C(O)=C1","-","13777","537.0","n-Dodecyl gallate","-","A73784","-","-","-","96.5 - 97.0","?C","96.8","Celsius"
"ClC1C2=CC=CC=C2CCC2=CC=CC=C12","-","13925","538.0","dibenzosuberyl chloride","-","A73784","-","-","-","106.5 - 107.0","?C","107.0","Celsius"
"CC(C)(C)C1=CC(=CC(=C1O)C(C)(C)C)C(O)=O","-","14285","539.0","3,5-Di-tert-butyl-4-hydroxybenzoic acid","-","A73784","-","-","-","207.5 - 208.0","?C","208.0","Celsius"
"CSC(C)C","-","14512","540.0","methyl_isopropyl_sulfide","-","A73784","-","-","-","-102.0 - -101.5","?C","-102.0","Celsius"
"CC1=CC=C(N)N=C1","-","14609","541.0","2-AMINO-5-METHYLPYRIDINE","-","A73784","-","-","-","76.0 - 76.5","?C","76.2","Celsius"
"CC[Si](Cl)(Cl)CC","-","14830","542.0","DICHLORODIETHYLSILANE","-","A73784","-","-","-","-97.0 - -96.5","?C","-96.8","Celsius"
"OCC1=C(Cl)C=C(Cl)C=C1","-","14918","543.0","2,4-Dichlorobenzyl alcohol","-","A73784","-","-","-","59.0 - 59.5","?C","59.2","Celsius"
"CCCCCCCCOC1=CC=C(C(=O)C2=CC=CC=C2)C(O)=C1","-","15020","544.0","2-Hydroxy-4-n-octyloxybenzophenone","-","A73784","-","-","-","48.0 - 48.5","?C","48.2","Celsius"
"BrC1C2=CC=CC=C2C2=CC=CC=C12","-","15216","545.0","9-Bromofluorene","-","A73784","-","-","-","103.0 - 103.5","?C","103.0","Celsius"
"CC(C)C1=CC=C2C=CC=CC2=C1","-","15410","546.0","2-ISOPROPYLNAPHTHALENE","-","A73784","-","-","-","14.0 - 14.5","?C","14.2","Celsius"
"BrC1=CC=CC=C1C=C","-","15432","547.0","2-BROMOSTYRENE","-","A73784","-","-","-","-53.0 - -52.5","?C","-52.8","Celsius"
"O=CC1CCCCC1","-","15443","548.0","Cyclohexanecarbaldehyde","-","A73784","-","-","-","34.5 - 35.0","?C","34.8","Celsius"
"CN1C(=O)C(=O)C2=CC=CC=C12","-","15517","549.0","1-Methylisatin","-","A73784","-","-","-","131.0 - 131.5","?C","131.0","Celsius"
"CC(=O)C1=CC=CC(Br)=C1","-","15644","550.0","3'-Bromoacetophenone","-","A73784","-","-","-","7.5 - 8.0","?C","7.75","Celsius"
"CN(C)C(=O)NC1=CC(=CC=C1)C(F)(F)F","-","15702","551.0","fluometuron","-","A73784","-","-","-","163.5 - 164.0","?C","164.0","Celsius"
"ClC1=NC(Cl)=C(Cl)C(Cl)=C1Cl","-","15724","552.0","pentachloropyridine","-","A73784","-","-","-","125.0 - 125.5","?C","125.0","Celsius"
"ClC1=CC(Cl)=C(Cl)N=C1Cl","-","16096","553.0","2,3,5,6-TETRACHLOROPYRIDINE","-","A73784","-","-","-","90.5 - 91.0","?C","90.8","Celsius"
"CC1=CC=C(O)C(=C1)C(C)(C)C","-","16109","554.0","2-tert-butyl-4-methylphenol","-","A73784","-","-","-","51.5 - 52.0","?C","51.8","Celsius"
"ClC1=CC=CC=C1C=C(C#N)C#N","-","16644","555.0","(2-Chlorobenzylidene)malononitrile","-","A73784","-","-","-","95.0 - 95.5","?C","95.2","Celsius"
"COC(=O)C1=CC(Cl)=CC=C1Cl","-","16951","556.0","METHYL 2,5-DICHLOROBENZOATE","-","A73784","-","-","-","38.5 - 39.0","?C","38.8","Celsius"
"BrC1=CSC=C1Br","-","17428","557.0","3,4-DIBROMOTHIOPHENE","-","A73784","-","-","-","4.5 - 5.0","?C","4.75","Celsius"
"ClC1=CC=C(Cl)S1","-","17474","558.0","2,5-DICHLOROTHIOPHENE","-","A73784","-","-","-","-41.0 - -40.5","?C","-40.8","Celsius"
"CCCCCCCCCCCCCCCCCCC=C","-","17879","559.0","1-EICOSENE","-","A73784","-","-","-","28.5 - 29.0","?C","28.8","Celsius"
"CCC(C)CC=C","-","18453","560.0","4-METHYL-1-HEXENE","-","A73784","-","-","-","-141.5 - -141.0","?C","-141.0","Celsius"
"CCOC(=O)C(C)(C)C","-","18688","561.0","Ethyl trimethylacetate","-","A73784","-","-","-","-90.0 - -89.5","?C","-89.8","Celsius"
"CCC(CC)C=C","-","18792","562.0","3-ETHYL-1-PENTENE","-","A73784","-","-","-","-127.5 - -127.0","?C","-127.0","Celsius"
"CCCCCCCCCCCCCCCC=C","-","21723","563.0","1-HEPTADECENE","-","A73784","-","-","-","11.0 - 11.5","?C","11.2","Celsius"
"CCCCCCCCCCCCCCCCCCCCCCCCCCCCCCCCCCCCCCCCCCCC","-","21965","564.0","TETRATETRACONTANE","-","A73784","-","-","-","87.5 - 88.0","?C","87.8","Celsius"
"CC1=CC(N)=CC=C1Cl","-","22006","565.0","4-Chloro-3-methylaniline","-","A73784","-","-","-","83.5 - 84.0","?C","83.8","Celsius"
"Cl[SiH](Cl)Cl","-","23196","566.0","TRICHLOROSILANE","-","A73784","-","-","-","-127.0 - -126.5","?C","-127.0","Celsius"
"CCOC(=O)C1=CC=C(C=C1)N(C)C","-","23472","567.0","Ethyl 4-(dimethylamino)benzoate","-","A73784","-","-","-","63.5 - 64.0","?C","63.8","Celsius"
"CN1N=NC2=C1C=CC=C2","-","24133","568.0","1-Methyl-1H-benzotriazole","-","A73784","-","-","-","64.5 - 65.0","?C","64.8","Celsius"
"ClC1=CN=C(Cl)C=C1","-","25757","571.0","2,5-Dichloropyridine","-","A73784","-","-","-","60.5 - 61.0","?C","60.8","Celsius"
"COC1=CC(Cl)=CC=C1O","-","26091","572.0","4-Chloro-2-methoxyphenol","-","A73784","-","-","-","16.5 - 17.0","?C","16.8","Celsius"
"CCC1=CC(C)=C(C)C=C1C","-","26801","573.0","1,2,4-trimethyl-5-ethylbenzene","-","A73784","-","-","-","-14.0 - -13.5","?C","-13.8","Celsius"
"OC(=O)CC1=C(N=C(S1)C1=CC=CC=C1)C1=CC=C(Cl)C=C1","-","26854","574.0","FENTIAZAC","-","A73784","-","-","-","161.0 - 161.5","?C","161.0","Celsius"
"COC1=CC(CCC(C)=O)=CC=C1O","-","28952","575.0","4-(4-Hydroxy-3-methoxyphenyl)-2-butanone","-","A73784","-","-","-","40.5 - 41.0","?C","40.8","Celsius"
"C(OC1=CC=CC=C1)C1CO1","-","28958","576.0","Glycidyl phenyl ether","-","A73784","-","-","-","3.5 - 4.0","?C","3.75","Celsius"
"CCCCOC1=CC=C(O)C=C1","-","28973","577.0","4-Butoxyphenol","-","A73784","-","-","-","65.0 - 65.5","?C","65.2","Celsius"
"CC1(C)CC(=O)CC(=O)C1","-","29091","578.0","5,5-Dimethylcyclohexane-1,3-dione","-","A73784","-","-","-","148.0 - 148.5","?C","148.0","Celsius"
"O=S(=O)(C1=CC=CC=C1)C1=CC=CC=C1","-","29117","579.0","Diphenyl sulfone","-","A73784","-","-","-","128.0 - 128.5","?C","128.0","Celsius"
"BrCC(Br)(Br)CBr","-","37466","580.0","1,2,2,3-TETRABROMOPROPANE","-","A73784","-","-","-","10.5 - 11.0","?C","10.8","Celsius"
"CCC(C)(C)C(=O)O[C@H]1C[C@@H](C)C=C2C=C[C@H](C)[C@H](CC[C@@H]3C[C@@H](O)CC(=O)O3)[C@@H]12","-","49179","581.0","Simvastatin","-","A73784","-","-","-","136.0 - 136.5","?C","136.0","Celsius"
"CC(C)C1(C)N=C(NC1=O)C1=NC=CC=C1C(O)=O","-","49445","582.0","2-(4-isopropyl-4-methyl-5-oxo-4,5-dihydro-1H-imidazol-2-yl)nicotinic acid","-","A73784","-","-","-","171.0 - 171.5","?C","171.0","Celsius"
"OC(=O)CCC=C","-","55085","583.0","4-Pentenoic acid","-","A73784","-","-","-","-22.5 - -22.0","?C","-22.2","Celsius"
"CCCCCCCCCCCCCC(C)=O","-","55242","584.0","2-Pentadecanone","-","A73784","-","-","-","39.0 - 39.5","?C","39.2","Celsius"
"OC1=CC=C(C=C)C=C1","-","56234","585.0","p-Vinylphenol","-","A73784","-","-","-","73.0 - 73.5","?C","73.2","Celsius"
"CC=CC","-","56442","586.0","(2E)-but-2-ene","-","A73784","-","-","-","-105.5 - -105.0","?C","-105.0","Celsius"
"O=C1NC=NC2=CC=CC=C12","-","56797","587.0","4-Hydroxyquinazoline","-","A73784","-","-","-","217.5 - 218.0","?C","218.0","Celsius"
"CC(=O)NC12CC3CC(CC(C3)C1)C2","-","57727","588.0","1-Acetamidoadamantane","-","A73784","-","-","-","148.0 - 148.5","?C","148.0","Celsius"
"CN(C)C1=CC=CC2=C1C=CC=C2S(N)(=O)=O","-","58587","589.0","Dansyl amide","-","A73784","-","-","-","219.5 - 220.0","?C","220.0","Celsius"
"COCCOC1=C(OC)C=C(CC2=CN=C(N)N=C2N)C=C1OC","-","58910","590.0","tetroxoprim","-","A73784","-","-","-","154.0 - 154.5","?C","154.0","Celsius"
"NC1=NC(Cl)=CC(Cl)=N1","-","58968","591.0","2-Amino-4,6-dichloropyrimidine","-","A73784","-","-","-","220.0 - 220.5","?C","220.0","Celsius"
"CC1=CC=C(CN)C=C1","-","59426","592.0","4-Methylbenzylamine","-","A73784","-","-","-","12.0 - 12.5","?C","12.2","Celsius"
"C1=CC=C(C=C1)[Si](C1=CC=CC=C1)(C1=CC=CC=C1)C1=CC=CC=C1","-","59493","593.0","Tetraphenylsilane","-","A73784","-","-","-","236.5 - 237.0","?C","237.0","Celsius"
"O=CC1=CC=C(OC2=CC=CC=C2)C=C1","-","59526","594.0","4-Phenoxybenzaldehyde","-","A73784","-","-","-","24.5 - 25.0","?C","24.8","Celsius"
"CC1=CC(C=O)=C(C)N1C1=CC=CC=C1","-","59886","595.0","2,5-dimethyl-1-phenylpyrrole-3-carboxaldehyde","-","A73784","-","-","-","88.5 - 89.0","?C","88.8","Celsius"
"CC1=CC=C(C)N1C1=CC=CC=C1","-","59889","596.0","2,5-Dimethyl-1-phenylpyrrole","-","A73784","-","-","-","49.5 - 50.0","?C","49.8","Celsius"
"OC1=C(Cl)C(=O)C(O)=C(Cl)C1=O","-","59971","597.0","2,5-dichloro-3,6-dihydroxy-1,4-benzoquinone","-","A73784","-","-","-","283.0 - 283.5","?C","283.0","Celsius"
"CCCCCCCCCC(Cl)=O","-","60340","598.0","Decanoyl chloride","-","A73784","-","-","-","-35.0 - -34.5","?C","-34.8","Celsius"
"ClC1=NN=C(Cl)C=C1","-","60662","599.0","3,6-Dichloropyridazine","-","A73784","-","-","-","67.5 - 68.0","?C","67.8","Celsius"
"FC1=C(F)C2=C(C(F)=C1F)C(F)=C(F)C(F)=C2F","-","60886","600.0","Octafluoronaphthalene","-","A73784","-","-","-","87.0 - 87.5","?C","87.2","Celsius"
"[O-][N+](=O)C1=C(F)C=C(F)C=C1F","-","60889","601.0","1,3,5-Trifluoro-2-nitrobenzene","-","A73784","-","-","-","3.5 - 4.0","?C","3.75","Celsius"
"NC(=O)C(F)(F)F","-","61036","602.0","2,2,2-Trifluoroacetamide","-","A73784","-","-","-","72.5 - 73.0","?C","72.8","Celsius"
"FC(F)(F)C1=CC=C(C=O)C=C1","-","61311","603.0","4-(Trifluoromethyl)benzaldehyde","-","A73784","-","-","-","1.5 - 2.0","?C","1.75","Celsius"
"NC1=CC=CC=C1NC1=CC=CC=C1","-","61594","604.0","N-Phenyl-o-phenylenediamine","-","A73784","-","-","-","79.0 - 79.5","?C","79.2","Celsius"
"ClC1=CC=C(C=C1)C(=O)CBr","-","61599","605.0","2-Bromo-4'-chloroacetophenone","-","A73784","-","-","-","96.0 - 96.5","?C","96.2","Celsius"
"COC(=O)C1=CC=CC=C1OC(C)=O","-","61759","607.0","methyl_2-acetoxybenzoate","-","A73784","-","-","-","51.5 - 52.0","?C","51.8","Celsius"
"C1=CC=C(N=C1)C1=CC=NC=C1","-","61763","608.0","2,4'-Bipyridine","-","A73784","-","-","-","61.0 - 61.5","?C","61.2","Celsius"
"COC1=CC=C(C=C1)C(=O)C1=CC=CC=C1","-","62361","609.0","4-Methoxybenzophenone","-","A73784","-","-","-","61.5 - 62.0","?C","61.8","Celsius"
"CCOC(=O)C1=CC=CN=C1","-","62402","610.0","Ethyl Nicotinate","-","A73784","-","-","-","8.5 - 9.0","?C","8.75","Celsius"
"COC(=O)C1=CC=CC(I)=C1","-","62471","611.0","methyl_3-iodobenzoate","-","A73784","-","-","-","54.0 - 54.5","?C","54.2","Celsius"
"IC1=CC=C(I)S1","-","62577","612.0","2,5-Diiodothiophene","-","A73784","-","-","-","41.0 - 41.5","?C","41.2","Celsius"
"FC(F)(F)C1=CC(=CC=C1)C(=O)C1=CC=CC=C1","-","62965","613.0","3-(Trifluoromethyl)benzophenone","-","A73784","-","-","-","52.0 - 52.5","?C","52.2","Celsius"
"CCOC(=O)C#CC(=O)OCC","-","63002","614.0","Diethyl acetylenedicarboxylate","-","A73784","-","-","-","1.5 - 2.0","?C","1.75","Celsius"
"CCCCCCCCC(Cl)=O","-","63017","615.0","Nonanoyl chloride","-","A73784","-","-","-","-61.0 - -60.5","?C","-60.8","Celsius"
"NC1=C(C=C(Br)C=C1)[N+]([O-])=O","-","63320","616.0","4-Bromo-2-nitroaniline","-","A73784","-","-","-","111.5 - 112.0","?C","112.0","Celsius"
"OC(=O)CCCCC=C","-","63871","618.0","6-Heptenoic acid","-","A73784","-","-","-","-6.5 - -6.0","?C","-6.25","Celsius"
"NC(=O)C1=CC=C(F)C=C1","-","64644","619.0","4-Fluorobenzamide","-","A73784","-","-","-","155.5 - 156.0","?C","156.0","Celsius"
"CCOC(=O)C1=CC2=C(N1)C=CC=C2","-","65903","620.0","Ethyl indole-2-carboxylate","-","A73784","-","-","-","123.5 - 124.0","?C","124.0","Celsius"
"ClC1=CC(CC#N)=CC=C1","-","66365","621.0","(3-Chlorophenyl)acetonitrile","-","A73784","-","-","-","11.5 - 12.0","?C","11.8","Celsius"
"BrC1=CN=CC2=CC=CC=C12","-","66385","622.0","4-Bromoisoquinoline","-","A73784","-","-","-","41.0 - 41.5","?C","41.2","Celsius"
"C1=CC=C(C=C1)C1=NC2=CC=CC=C2N=C1C1=CC=CC=C1","-","66909","623.0","2,3-Diphenylquinoxaline","-","A73784","-","-","-","126.0 - 126.5","?C","126.0","Celsius"
"CC=C1CCCC1","-","67620","624.0","Ethylidenecyclopentane","-","A73784","-","-","-","-130.0 - -129.5","?C","-130.0","Celsius"
"FC1=CC=C(C=C1)N1CCNCC1","-","67803","625.0","1-(4-Fluorophenyl)piperazine","-","A73784","-","-","-","31.5 - 32.0","?C","31.8","Celsius"
"CC1=CC(=CC=C1N)C(O)=O","-","68122","626.0","4-Amino-3-methylbenzoic acid","-","A73784","-","-","-","169.5 - 170.0","?C","170.0","Celsius"
"C[Si]1(O[Si](C)(O[Si](C)(O[Si](C)(O1)C=C)C=C)C=C)C=C","-","68224","627.0","2,4,6,8-Tetramethyl-2,4,6,8-tetravinylcyclotetrasiloxane","-","A73784","-","-","-","-43.5 - -43.0","?C","-43.2","Celsius"
"CCCC#CCC","-","68268","628.0","3-HEPTYNE","-","A73784","-","-","-","-131.0 - -130.5","?C","-131.0","Celsius"
"ClC1=CC(Cl)=NC(Cl)=N1","-","69792","629.0","2,4,6-Trichloropyrimidine","-","A73784","-","-","-","22.5 - 23.0","?C","22.8","Celsius"
"COC(=O)CCC(O)=O","-","69896","630.0","4-Methoxy-4-oxobutanoic acid","-","A73784","-","-","-","57.5 - 58.0","?C","57.8","Celsius"
"NC1=CC(Cl)=C(O)C=C1","-","69983","631.0","4-Amino-2-chlorophenol","-","A73784","-","-","-","151.5 - 152.0","?C","152.0","Celsius"
"O=CC1=CC2=CC=CC=C2C2=C1C=CC=C2","-","70806","632.0","Phenanthrene-9-carboxaldehyde","-","A73784","-","-","-","101.5 - 102.0","?C","102.0","Celsius"
"O=C1CCC(CC1)C1=CC=CC=C1","-","70962","633.0","4-Phenylcyclohexanone","-","A73784","-","-","-","79.5 - 80.0","?C","79.8","Celsius"
"CCOC1=CC=C(CC(O)=O)C=C1","-","70988","634.0","4-Ethoxyphenylacetic acid","-","A73784","-","-","-","88.5 - 89.0","?C","88.8","Celsius"
"CC(=O)C1=CC=C(Br)S1","-","71655","635.0","2-Acetyl-5-bromothiophene","-","A73784","-","-","-","94.5 - 95.0","?C","94.8","Celsius"
"CC1=CC(Cl)=NC(Cl)=N1","-","71784","636.0","2,4-Dichloro-6-methylpyrimidine","-","A73784","-","-","-","46.0 - 46.5","?C","46.2","Celsius"
"CCC1=CC=CC(=C1)C1=CC=CC=C1","-","72051","637.0","1-Ethyl-3-phenylbenzene","-","A73784","-","-","-","-28.0 - -27.5","?C","-27.8","Celsius"