"SMILES","CASRN","EXTERNALID","N","NAME","NAME","ARTICLEID","PUBMEDID","PAGE","TABLE","Melting Point {measured}","UNIT {Melting Point}","Melting Point {measured, converted}","UNIT {Melting Point}"
"C1=CC=C2C(C=CC3=CC=CC=C23)=C1","-","970","2231.0","Phenanthrene","-","A73784","-","-","-","99.0 - 101.0","?C","100.0","Celsius"
"CCCCCCCCCCCCCCCCCCCCO","-","11898","2232.0","1-EICOSANOL","-","A73784","-","-","-","64.0 - 66.1","?C","65.0","Celsius"
"CC1(C)C(CCC1(C)C(O)=O)C(O)=O","-","20198","2233.0","Camphoric acid","-","A73784","-","-","-","187.0 - 189.1","?C","188.0","Celsius"
"BrC1=CC=CC=C1Br","-","13875212","2234.0","1,2-dibromobenzene","-","A73784","-","-","-","5.0 - 7.1","?C","6.05","Celsius"
"FC(F)(F)C1=CC=CC=C1","-","7090","2235.0","(Trifluoromethyl)benzene","-","A73784","-","-","-","-29.1 - -27.0","?C","-28.1","Celsius"
"O=CC1=CC=CO1","-","13863629","2236.0","2-Furaldehyde","-","A73784","-","-","-","-38.1 - -36.0","?C","-37.0","Celsius"
"CCCCCC(O)=O","-","8552","2237.0","HEXANOIC ACID","-","A73784","-","-","-","-4.0 - -1.89999999999998","?C","-2.95","Celsius"
"CCCCCCCC=C","-","29025","2238.0","1-Nonene","-","A73784","-","-","-","-83.15 - -81.0","?C","-82.1","Celsius"
"NC(=O)C1=CC=CC2=CC=CC=C12","-","67788","2239.0","naphthalene-1-carboxamide","-","A73784","-","-","-","205.8 - 208.0","?C","207.0","Celsius"
"C=C(C1=CC=CC=C1)C1=CC=CC=C1","-","10287","2240.0","1,1-DIPHENYLETHYLENE","-","A73784","-","-","-","6.0 - 8.2","?C","7.1","Celsius"
"CC=CC1=CC=CC=C1","-","221082","2241.0","trans-1-Phenyl-1-propene","-","A73784","-","-","-","-29.3 - -27.1","?C","-28.2","Celsius"
"CCOC(=O)C=CC(=O)OCC","-","4436353","2242.0","diethyl (2Z)-but-2-enedioate","-","A73784","-","-","-","-11.0 - -8.8","?C","-9.9","Celsius"
"OCCOCCOCCOCCO","-","7908","2243.0","2,2'-[oxybis(ethane-2,1-diyloxy)]diethanol","-","A73784","-","-","-","-6.2 - -4.0","?C","-5.1","Celsius"
"OC1=CC=CC=CC1=O","-","10333","2244.0","Tropolone","-","A73784","-","-","-","50.8 - 53.0","?C","51.9","Celsius"
"FC1=CC=CC=C1","-","9614","2245.0","fluorobenzene","-","A73784","-","-","-","-42.2 - -40.0","?C","-41.1","Celsius"
"OC1=C(F)C(F)=C(F)C(F)=C1F","-","12499","2246.0","Pentafluorophenol","-","A73784","-","-","-","32.8 - 35.0","?C","33.9","Celsius"
"CCCCCCCCCCCCCCCCCCCCCCCCCCCCC","-","11903","2247.0","NONACOSANE","-","A73784","-","-","-","63.7 - 66.0","?C","64.8","Celsius"
"COC(=O)C(=O)OC","-","10649","2248.0","dimethyl_oxalate","-","A73784","-","-","-","52.0 - 54.3","?C","53.1","Celsius"
"CC1=CC=C(C(=C1)[N+]([O-])=O)[N+]([O-])=O","-","11390","2249.0","3,4-dinitrotoluene","-","A73784","-","-","-","56.0 - 58.3","?C","57.1","Celsius"
"CCC(=O)C1=CC=C(Cl)C=C1","-","21278","2250.0","4'-Chloropropiophenone","-","A73784","-","-","-","35.0 - 37.3","?C","36.1","Celsius"
"NC1=CC=CC(=C1)C#N","-","21111842","2251.0","3-Aminobenzonitrile","-","A73784","-","-","-","52.0 - 54.3","?C","53.1","Celsius"
"CC(C)C1=CC=C(O)C=C1","-","7185","2252.0","4-isopropylphenol","-","A73784","-","-","-","60.0 - 62.3","?C","61.1","Celsius"
"CC(C)C(=O)C1=CC=CC=C1","-","62359","2253.0","Isobutyrophenone","-","A73784","-","-","-","-1.3 - 1.0","?C","-0.15","Celsius"
"C1CCC(CC1)C1=CC=CC=C1","-","12674","2254.0","Cyclohexylbenzene","-","A73784","-","-","-","5.0 - 7.3","?C","6.15","Celsius"
"CCCCCCCCC(O)=O","-","7866","2255.0","NONANOIC ACID","-","A73784","-","-","-","10.0 - 12.3","?C","11.2","Celsius"
"COC(=O)CCCCC(=O)OC","-","11824","2256.0","Dimethyl adipate","-","A73784","-","-","-","8.0 - 10.3","?C","9.15","Celsius"
"COC1=CC(=CC(OC)=C1OC)C(O)=O","-","8054","2258.0","3,4,5-TRIMETHOXYBENZOIC ACID","-","A73784","-","-","-","170.0 - 172.3","?C","171.0","Celsius"
"ClC1=CC=CC(Cl)=C1Cl","-","13864445","2260.0","1,2,3-trichlorobenzene","-","A73784","-","-","-","52.6 - 55.0","?C","53.8","Celsius"
"CC1=CC(C)=CN=C1","-","11077","2261.0","3,5-Lutidine","-","A73784","-","-","-","-9.0 - -6.6","?C","-7.8","Celsius"
"C(C1=CC=CC=C1)C1=CC=NC=C1","-","15603","2262.0","4-Benzylpyridine","-","A73784","-","-","-","10.0 - 12.4","?C","11.2","Celsius"
"CC\C=C\CC","-","553629","2263.0","trans-3-Hexene","-","A73784","-","-","-","-115.4 - -113.0","?C","-114.0","Celsius"
"CC1=CC=C(C=C1)C(O)=O","-","7190","2264.0","4-Methylbenzoic acid","-","A73784","-","-","-","179.6 - 182.0","?C","181.0","Celsius"
"CC(=O)NO","-","1913","2265.0","acetohydroxamic acid","-","A73784","-","-","-","88.0 - 90.5","?C","89.2","Celsius"
"CC1(C)OC(=O)NC1=O","-","2972","2266.0","5,5-Dimethyloxazolidine-2,4-dione","-","A73784","-","-","-","76.5 - 79.0","?C","77.8","Celsius"
"OC1=C(CC2=C(Cl)C(Cl)=CC(Cl)=C2O)C(Cl)=C(Cl)C=C1Cl","-","3472","2267.0","2,2'-Methylenebis(3,4,6-trichlorophenol)","-","A73784","-","-","-","164.0 - 166.5","?C","165.0","Celsius"
"OC[C@H]1O[C@@](CO)(O[C@H]2O[C@H](CO)[C@@H](O)[C@H](O)[C@H]2O)[C@@H](O)[C@@H]1O","-","5768","2268.0","sucrose","-","A73784","-","-","-","185.5 - 188.0","?C","187.0","Celsius"
"Cl[Si](C1=CC=CC=C1)(C1=CC=CC=C1)C1=CC=CC=C1","-","6216","2269.0","Chlorotriphenylsilane","-","A73784","-","-","-","91.5 - 94.0","?C","92.8","Celsius"
"ClC1=CC=C(C=C1)C(=O)C1=CC=C(Cl)C=C1","-","6767","2270.0","4,4'-Dichlorobenzophenone","-","A73784","-","-","-","145.0 - 147.5","?C","146.0","Celsius"
"OC(=O)C1=CC2=CC=CC=C2C=C1O","-","6837","2271.0","3-Hydroxy-2-naphthoic acid","-","A73784","-","-","-","220.0 - 222.5","?C","221.0","Celsius"
"OC(=O)C1=C(O)C=CC(=C1)[N+]([O-])=O","-","7042","2272.0","5-Nitrosalicylic acid","-","A73784","-","-","-","229.5 - 232.0","?C","231.0","Celsius"
"CC(C)C(=O)OC(=O)C(C)C","-","7069","2273.0","Isobutyric anhydride","-","A73784","-","-","-","-56.0 - -53.5","?C","-54.8","Celsius"
"ClC(=O)C1=CC=C(C=C1)C(Cl)=O","-","7207","2274.0","Terephthaloyl chloride","-","A73784","-","-","-","81.0 - 83.5","?C","82.2","Celsius"
"N(C(NC1=CC=CC=C1)=NC1=CC=CC=C1)C1=CC=CC=C1","-","7258","2275.0","N,N',N''-Triphenylguanidine","-","A73784","-","-","-","144.0 - 146.5","?C","145.0","Celsius"
"O=NN1CN2CN(C1)CN(C2)N=O","-","7268","2276.0","3,7-dinitroso-1,3,5,7-tetraazabicyclo[3.3.1]nonane","-","A73784","-","-","-","204.5 - 207.0","?C","206.0","Celsius"
"NC1=CC=C(CC2=CC=C(N)C=C2)C=C1","-","7296","2277.0","4,4'-DIAMINODIPHENYLMETHANE","-","A73784","-","-","-","90.0 - 92.5","?C","91.2","Celsius"
"C(C1=CC=CC=C1)C1=CC=CC=N1","-","7300","2278.0","2-Benzylpyridine","-","A73784","-","-","-","10.0 - 12.5","?C","11.2","Celsius"
"NC1=NC=CC=N1","-","7690","2279.0","2-Aminopyrimidine","-","A73784","-","-","-","125.0 - 127.5","?C","126.0","Celsius"
"CC(O)CNCC(C)O","-","7795","2280.0","DIISOPROPANOLAMINE","-","A73784","-","-","-","42.0 - 44.5","?C","43.2","Celsius"
"CC1=CC=C(O)C(=C1)[N+]([O-])=O","-","8086","2281.0","4-methyl-2-nitrophenol","-","A73784","-","-","-","34.0 - 36.5","?C","35.2","Celsius"
"O1C2=CC=CC=C2SC2=CC=CC=C12","-","8862","2282.0","Phenoxathiine","-","A73784","-","-","-","57.0 - 59.5","?C","58.2","Celsius"
"OC(=O)C1=CC=CC=C1F","-","9547","2283.0","2-FLUOROBENZOIC ACID","-","A73784","-","-","-","124.0 - 126.5","?C","125.0","Celsius"
"O=C1CCCC(=O)C1","-","10004","2284.0","1,3-Cyclohexanedione","-","A73784","-","-","-","103.0 - 105.5","?C","104.0","Celsius"
"OC(C(=O)C1=CC=CO1)C1=CC=CO1","-","10629","2285.0","2,2'-Furoin","-","A73784","-","-","-","135.5 - 138.0","?C","137.0","Celsius"
"COC1=CC=C(Cl)C=C1Cl","-","10648","2286.0","2,4-Dichloroanisole","-","A73784","-","-","-","26.0 - 28.5","?C","27.2","Celsius"
"NC1=CC2=CC=CC=C2N=C1","-","10897","2287.0","3-aminoquinoline","-","A73784","-","-","-","91.5 - 94.0","?C","92.8","Celsius"
"O=C1CCC(=O)N1","-","10955","2288.0","succinimide","-","A73784","-","-","-","124.0 - 126.5","?C","125.0","Celsius"
"OC(=O)CCBr","-","11066","2289.0","3-Bromopropionic acid","-","A73784","-","-","-","60.0 - 62.5","?C","61.2","Celsius"
"[O-][N+](=O)C1=CC=CS1","-","11373","2290.0","2-NITROTHIOPHENE","-","A73784","-","-","-","44.0 - 46.5","?C","45.2","Celsius"
"CC1=CC2=C(C=CC=N2)C=C1","-","11433","2291.0","7-methylquinoline","-","A73784","-","-","-","36.5 - 39.0","?C","37.8","Celsius"
"CCNC(=O)NCC","-","11694","2292.0","N,N'-Diethylurea","-","A73784","-","-","-","110.0 - 112.5","?C","111.0","Celsius"
"CCCCCCCCCCCCCCCCCCCCCCCCCCCC","-","11902","2293.0","n-Octacosane","-","A73784","-","-","-","62.0 - 64.5","?C","63.2","Celsius"
"CCCCCCCCCCCCCCCCCCCCCCO","-","12100","2294.0","docosan-1-ol","-","A73784","-","-","-","70.0 - 72.5","?C","71.2","Celsius"
"O=C1CCCCN1","-","12144","2295.0","DELTA-VALEROLACTAM","-","A73784","-","-","-","37.0 - 39.5","?C","38.2","Celsius"
"C(SC1=CC=CC=C1)C1=CC=CC=C1","-","12697","2296.0","BENZYL PHENYL SULFIDE","-","A73784","-","-","-","41.0 - 43.5","?C","42.2","Celsius"
"OC1CCCCC1O","-","13012","2297.0","1,2-CYCLOHEXANEDIOL-CIS","-","A73784","-","-","-","100.0 - 102.5","?C","101.0","Celsius"
"CC1=CC=CN=C1N","-","14608","2298.0","2-Amino-3-methylpyridine","-","A73784","-","-","-","31.0 - 33.5","?C","32.2","Celsius"
"BrC1=CC=C(C=C1)N=C=S","-","15317","2299.0","4-Bromophenyl isothiocyanate","-","A73784","-","-","-","58.0 - 60.5","?C","59.2","Celsius"
"CC(=O)CC(C)(C)NC(=O)C=C","-","16896","2300.0","Diacetone Acrylamide","-","A73784","-","-","-","55.0 - 57.5","?C","56.2","Celsius"
"CC1(C)CC(C)(C2=CC=CC=C12)C1=CC=CC=C1","-","18644","2301.0","1,3,3-Trimethyl-1-phenylindan","-","A73784","-","-","-","50.0 - 52.5","?C","51.2","Celsius"
"CC(C)(CC(O)=O)CC(O)=O","-","19739","2302.0","3,3-DIMETHYLGLUTARIC ACID","-","A73784","-","-","-","101.0 - 103.5","?C","102.0","Celsius"
"COC1=CC=C(N)C=C1Cl","-","20151","2303.0","3-Chloro-p-anisidine","-","A73784","-","-","-","50.0 - 52.5","?C","51.2","Celsius"
"ClC1=C(Cl)C(Cl)=C(Cl)S1","-","20971","2304.0","Tetrachlorothiophene","-","A73784","-","-","-","28.0 - 30.5","?C","29.2","Celsius"
"CC1=C(C2=C(C=C1)C(=O)C1=CC=CC=C1C2=O)[N+]([O-])=O","-","29156","2305.0","2-methyl-1-nitro-9,10-anthraquinone","-","A73784","-","-","-","268.0 - 270.5","?C","269.0","Celsius"
"OCC1=CC(Cl)=CC(Cl)=C1","-","39404","2306.0","3,5-DICHLOROBENZYL ALCOHOL","-","A73784","-","-","-","78.0 - 80.5","?C","79.2","Celsius"
"ClC(=O)CCCCCCCCC(Cl)=O","-","59462","2307.0","Sebacoyl chloride","-","A73784","-","-","-","-5.0 - -2.5","?C","-3.75","Celsius"
"CN(C)CC1=CC(=C(O)C(=C1)C(C)(C)C)C(C)(C)C","-","59976","2308.0","2,6-di-tert-Butyl-4-(dimethylaminomethyl)phenol","-","A73784","-","-","-","91.0 - 93.5","?C","92.2","Celsius"
"C1CNCCNC1","-","61471","2309.0","Homopiperazine","-","A73784","-","-","-","41.0 - 43.5","?C","42.2","Celsius"
"CC1=CC=C(C=C1)C(=O)C1=CC=C(C)C=C1","-","62363","2310.0","4,4'-Dimethylbenzophenone","-","A73784","-","-","-","94.0 - 96.5","?C","95.2","Celsius"
"CNC(=O)NC(C)=O","-","62546","2311.0","n-(methylcarbamoyl)acetamid","-","A73784","-","-","-","178.0 - 180.5","?C","179.0","Celsius"
"COC1=CC=C(C=C1)C(=O)OC(=O)C1=CC=C(OC)C=C1","-","63122","2312.0","4-Methoxybenzoic anhydride","-","A73784","-","-","-","94.5 - 97.0","?C","95.8","Celsius"
"COC(=O)C1=CC2=C(C=CC=C2)C=C1O","-","63350","2313.0","Methyl 3-hydroxy-2-naphthoate","-","A73784","-","-","-","73.0 - 75.5","?C","74.2","Celsius"
"[O-][N+](=O)C1=CC=CC=C1SSC1=CC=CC=C1[N+]([O-])=O","-","64024","2314.0","Bis(2-nitrophenyl) disulfide","-","A73784","-","-","-","194.0 - 196.5","?C","195.0","Celsius"
"CC(=C)C1=CC=C(C=C1)C(C)=C","-","66759","2315.0","p-Diisopropenylbenzene","-","A73784","-","-","-","63.5 - 66.0","?C","64.8","Celsius"
"BrC1=C(Br)C(Br)=C(Br)S1","-","69970","2316.0","Tetrabromothiophene","-","A73784","-","-","-","115.0 - 117.5","?C","116.0","Celsius"
"CC(=O)O[Si](C)(OC(C)=O)OC(C)=O","-","70319","2317.0","Triacetoxy(methyl)silane","-","A73784","-","-","-","40.5 - 43.0","?C","41.8","Celsius"
"ClC1=CN=CC(Cl)=N1","-","70868","2318.0","2,6-Dichloropyrazine","-","A73784","-","-","-","54.0 - 56.5","?C","55.2","Celsius"
"COC1=CC=C(C(OC)=C1)[N+]([O-])=O","-","70990","2319.0","2,4-dimethoxy-1-nitrobenzene","-","A73784","-","-","-","74.0 - 76.5","?C","75.2","Celsius"
"C[C@H](NC(=O)OC(C)(C)C)C(O)=O","-","76745","2320.0","boc-alanine","-","A73784","-","-","-","79.5 - 82.0","?C","80.8","Celsius"
"[O-][N+](=O)C1=CC(Cl)=C(Cl)C(Cl)=C1","-","79719","2321.0","1,2,3-trichloro-5-nitrobenzene","-","A73784","-","-","-","70.0 - 72.5","?C","71.2","Celsius"
"NC1=CC2=C(CCC2)C=C1","-","81705","2322.0","5-aminoindane","-","A73784","-","-","-","35.0 - 37.5","?C","36.2","Celsius"
"COC(C(=O)C1=CC=CC=C1)C1=CC=CC=C1","-","88569","2323.0","benzoin_methyl_ether","-","A73784","-","-","-","47.0 - 49.5","?C","48.2","Celsius"
"CC(=O)OC[C@H]1O[C@H](Br)[C@H](OC(C)=O)[C@@H](OC(C)=O)[C@@H]1OC(C)=O","-","91958","2324.0","2-O-Acetyl-3-O-bromo-D-glucose","-","A73784","-","-","-","87.0 - 89.5","?C","88.2","Celsius"
"OCC1=CC=C(O1)C=O","-","207215","2325.0","5-Hydroxymethyl-2-furaldehyde","-","A73784","-","-","-","31.5 - 34.0","?C","32.8","Celsius"
"C[Si](C1=CC=CC=C1)(C1=CC=CC=C1)C1=CC=CC=C1","-","455964","2326.0","methyltriphenylsilane","-","A73784","-","-","-","67.0 - 69.5","?C","68.2","Celsius"
"COC1=CC=C(OC)C(N)=C1","-","13869661","2327.0","2,5-DIMETHOXYANILINE","-","A73784","-","-","-","80.0 - 82.5","?C","81.2","Celsius"
"NC1=CC(Cl)=C(Cl)C=C1Cl","-","21111772","2328.0","2,4,5-Trichloroaniline","-","A73784","-","-","-","94.0 - 96.5","?C","95.2","Celsius"
"BrCC1=CC=C(CBr)C=C1","-","21125563","2329.0","1,4-Bis(bromomethyl)benzene","-","A73784","-","-","-","142.0 - 144.5","?C","143.0","Celsius"
"OC(=O)COC1=CC=C(Cl)C=C1Cl","-","1441","2330.0","(2,4-dichlorophenoxy)acetic acid","-","A73784","-","-","-","138.0 - 140.5","?C","139.0","Celsius"
"NC(=O)C1=CC(N)=CC=C1","-","1583","2331.0","m-aminobenzamide","-","A73784","-","-","-","113.0 - 115.5","?C","114.0","Celsius"
"COC1=CC=CC=C1OCC(O)CO","-","3396","2332.0","3-(2-Methoxyphenoxy)-1,2-propanediol","-","A73784","-","-","-","78.5 - 81.0","?C","79.8","Celsius"
"C1CCN2N=NN=C2CC1","-","5704","2334.0","6,7,8,9-Tetrahydro-5H-tetrazolo[1,5-a]azepine","-","A73784","-","-","-","57.5 - 60.0","?C","58.8","Celsius"
"CCOS(=O)(=O)C1=CC=C(C)C=C1","-","6386","2335.0","ethyl_p-toluenesulfonate","-","A73784","-","-","-","32.0 - 34.5","?C","33.2","Celsius"
"CC1=CNC2=CC=CC=C12","-","6480","2336.0","3-Methyl-1H-indole","-","A73784","-","-","","95.0","?C","95.0","Celsius"
"COC1=CC=CC(OC)=C1O","-","6774","2337.0","2,6-Dimethoxyphenol","-","A73784","-","-","-","54.0 - 56.5","?C","55.2","Celsius"
"CC(=O)C1=CC=C(O)C=C1","-","7189","2338.0","4-hydroxyacetophenone","-","A73784","-","-","-","107.0 - 109.5","?C","108.0","Celsius"
"COC1=CC(=CC=C1O)C(O)=O","-","8155","2339.0","4-HYDROXY-3-METHOXYBENZOIC ACID","-","A73784","-","-","-","211.5 - 214.0","?C","213.0","Celsius"
"CN(C)C1=CC=C(C=C1)\N=N\C1=CC=CC=C1C(O)=O","-","9881","2340.0","2-{(E)-[4-(dimethylamino)phenyl]diazenyl}benzoic acid","-","A73784","-","-","-","180.5 - 183.0","?C","182.0","Celsius"
"COC1=CC(=CC(OC)=C1O)C(O)=O","-","10289","2341.0","4-Hydroxy-3,5-dimethoxybenzoic acid","-","A73784","-","-","-","205.0 - 207.5","?C","206.0","Celsius"
"ClCC(=O)C1=CC=CC=C1","-","10303","2342.0","2-CHLORO-1-PHENYLETHANONE","-","A73784","-","-","-","54.0 - 56.5","?C","55.2","Celsius"
"CC(C)=CC(O)=O","-","10468","2343.0","3,3-Dimethylacrylic acid","-","A73784","-","-","-","67.0 - 69.5","?C","68.2","Celsius"
"[O-][N+](=O)C1=CC=CC=C1C=O","-","10630","2344.0","o-Nitrobenzaldehyde","-","A73784","-","-","-","43.5 - 46.0","?C","44.8","Celsius"
"CC1=CC=C(CO)C=C1","-","11021","2345.0","4-methylbenzyl_alcohol","-","A73784","-","-","-","59.0 - 61.5","?C","60.2","Celsius"
"BrC1=CC=C(OC2=CC=C(Br)C=C2)C=C1","-","15471","2346.0","Bis(4-bromophenyl) ether","-","A73784","-","-","-","58.0 - 60.5","?C","59.2","Celsius"
"CC(C)(C)C1=CC=CC(=C1O)C(C)(C)C","-","29135","2347.0","2,6-DI-TERT-BUTYLPHENOL","-","A73784","-","-","-","36.5 - 39.0","?C","37.8","Celsius"
"O=C1OC2(OC=C(C2=O)C2=CC=CC=C2)C2=CC=CC=C12","-","34768","2348.0","4'-Phenyl-3H,3'H-spiro[2-benzofuran-1,2'-furan]-3,3'-dione","-","A73784","-","-","-","154.5 - 157.0","?C","156.0","Celsius"
"O=C(CC#N)C1=CC=CC=C1","-","58331","2349.0","Benzoylacetonitrile","-","A73784","-","-","-","80.5 - 83.0","?C","81.8","Celsius"
"CC1=CC=C(Cl)C(N)=C1","-","60136","2350.0","2-chloro-5-methylaniline","-","A73784","-","-","-","29.5 - 32.0","?C","30.8","Celsius"
"CC1=CC(=O)C=C(C)C1=O","-","61542","2351.0","2,6-Dimethyl-1,4-benzoquinone","-","A73784","-","-","-","70.0 - 72.5","?C","71.2","Celsius"
"CC(=O)C1=CC=CC=C1C(O)=O","-","61749","2352.0","2-acetylbenzoic_acid","-","A73784","-","-","-","114.5 - 117.0","?C","116.0","Celsius"
"OCC1=CC=C(C=C1)[N+]([O-])=O","-","62486","2353.0","4-nitrobenzyl_alcohol","-","A73784","-","-","-","94.0 - 96.5","?C","95.2","Celsius"
"COC1=CC=C(C=C1O)[C@@H]1CC(=O)C2=C(O)C=C(O)C=C2O1","-","65234","2354.0","3',5,7-Trihydroxy-4'-methoxyflavanone","-","A73784","-","-","-","227.5 - 230.0","?C","229.0","Celsius"
"NC1=CC=C(C=C)C=C1","-","66344","2355.0","4-Aminostyrene","-","A73784","-","-","-","23.5 - 26.0","?C","24.8","Celsius"
"OC1C2=CC=CC=C2C2=CC=CC=C12","-","66916","2356.0","9H-Fluoren-9-ol","-","A73784","-","-","-","153.5 - 156.0","?C","155.0","Celsius"
"S=C(NC1=CC=CC=C1)NC1=CC=CC=C1","-","610932","2357.0","1,3-Diphenylthiourea","-","A73784","-","-","-","152.0 - 154.5","?C","153.0","Celsius"
"COC1=CC=C2C[C@@H]3[C@@H]4C=C[C@H](O)[C@@H]5OC1=C2[C@]45CCN3C","-","4447447","2358.0","(5alpha,6alpha)-3-methoxy-17-methyl-7,8-didehydro-4,5-epoxymorphinan-6-ol","-","A73784","-","-","-","155.0 - 157.5","?C","156.0","Celsius"
"NCCCCCCN","-","13835579","2359.0","HEXANE-1,6-DIAMINE","-","A73784","-","-","-","39.0 - 41.5","?C","40.2","Celsius"
"NC1=CC(Br)=CC=C1","-","13860633","2360.0","m-Bromoaniline","-","A73784","-","-","-","16.0 - 18.5","?C","17.2","Celsius"
"NC1=C(Cl)C=C(Cl)C=C1","-","13860817","2361.0","2,4-dichloroaniline","-","A73784","-","-","-","61.0 - 63.5","?C","62.2","Celsius"
"CC(C)C1=CC=C(C)C=C1O","-","21105998","2362.0","thymol","-","A73784","-","-","-","49.0 - 51.5","?C","50.2","Celsius"
"CC(=O)C1=CC(N)=CC=C1","-","21106518","2363.0","m-aminoacetophenone","-","A73784","-","-","-","96.0 - 98.5","?C","97.2","Celsius"
"COC1=CC(OC)=CC(OC)=C1","-","21111723","2364.0","1,3,5-Trimethoxybenzene","-","A73784","-","-","-","52.0 - 54.5","?C","53.2","Celsius"
"COC1=CC=C(C=C1)C#N","-","21112332","2365.0","4-methoxybenzonitrile","-","A73784","-","-","-","59.0 - 61.5","?C","60.2","Celsius"
"OC1=CC=C(C=C1)C1(OC(=O)C2=CC=CC=C12)C1=CC=C(O)C=C1","-","4600","2366.0","phenolphthalein","-","A73784","-","-","-","260.0 - 262.5","?C","261.0","Celsius"
"[O-][N+](=O)C1=C(Cl)C(Cl)=C(Cl)C(Cl)=C1Cl","-","6464","2367.0","PENTACHLORONITROBENZENE","-","A73784","-","-","-","141.5 - 144.0","?C","143.0","Celsius"
"NC1=CC=CC=C1C1=CC=CC=C1","-","6748","2368.0","biphenyl-2-amine","-","A73784","-","-","-","49.0 - 51.5","?C","50.2","Celsius"
"CC1=CC=C(C=C1[N+]([O-])=O)[N+]([O-])=O","-","8150","2370.0","1-Methyl-2,4-dinitrobenzene","-","A73784","-","-","-","68.5 - 71.0","?C","69.8","Celsius"
"NC(=O)C1=CC=C(C=C1)[N+]([O-])=O","-","11594","2371.0","4-NITROBENZAMIDE","-","A73784","-","-","-","200.0 - 202.5","?C","201.0","Celsius"
"OC1=CC=CC(=C1)C#N","-","12821","2372.0","3-Cyanophenol","-","A73784","-","-","-","79.5 - 82.0","?C","80.8","Celsius"
"NC1=CC=C(Cl)C=C1","-","13869339","2373.0","4-chloroaniline","-","A73784","-","-","-","70.0 - 72.5","?C","71.2","Celsius"
"OC(=O)C1=CC=C(O)C=C1","-","132","2374.0","4-Hydroxybenzoic Acid","-","A73784","-","-","-","214.5 - 217.0","?C","216.0","Celsius"
"COC1=CC(\C=C\C(=O)C2=CC=CC=C2O)=CC=C1O","-","4767768","2375.0","2',4-dihydroxy-3-methoxychalcone","-","A73784","-","-","-","126.5 - 129.0","?C","128.0","Celsius"
"NC1=CC=C(C=C1)S(=O)(=O)NC1=NC=CS1","-","5148","2376.0","Sulfathiazole","-","A73784","-","-","-","200.0 - 202.5","?C","201.0","Celsius"
"BrC1=CC(Br)=C(Br)C=C1","-","11507","2377.0","1,2,4-tribromobenzene","-","A73784","-","-","-","42.0 - 44.5","?C","43.2","Celsius"
"ClC1=CC=C(C=O)C=C1","-","21106019","2378.0","4-chlorobenzaldehyde","-","A73784","-","-","-","46.0 - 48.5","?C","47.2","Celsius"
"C1=CC=C2C(=C1)C1=CC=CC=C1C1=CC=CC=C21","-","8816","2379.0","triphenylene","-","A73784","-","-","-","196.5 - 199.0","?C","198.0","Celsius"
"NCCN","-","13835550","2381.0","Ethane-1,2-diamine","-","A73784","-","-","-","8.5 - 11.1","?C","9.8","Celsius"