"SMILES","CASRN","EXTERNALID","N","NAME","NAME","ARTICLEID","PUBMEDID","PAGE","TABLE","Melting Point {measured}","UNIT {Melting Point}","Melting Point {measured, converted}","UNIT {Melting Point}"
"CC(C)NCC(O)COC1=CC=CC=C1CC=C","-","2035","1275.0","Alprenolol","-","A73784","-","-","-","108.0 - 109.0","?C","108.0","Celsius"
"NCC(CC(O)=O)C1=CC=C(Cl)C=C1","-","2197","1276.0","Baclofen","-","A73784","-","-","-","207.0 - 208.0","?C","208.0","Celsius"
"CCOP(=S)(OCC)OC1=NC(Cl)=C(Cl)C=C1Cl","-","2629","1279.0","o,o-diethyl o-(3,5,6-trichloropyridin-2-yl) phosphorothioate","-","A73784","-","-","-","41.5 - 42.5","?C","42.0","Celsius"
"NC(=O)CI","-","3596","1282.0","2-Iodoacetamide","-","A73784","-","-","-","93.5 - 94.5","?C","94.0","Celsius"
"CN1C(=O)OC(C)(C)C1=O","-","5374","1288.0","3,5,5-trimethyloxazolidine-2,4-dione","-","A73784","-","-","-","46.0 - 47.0","?C","46.5","Celsius"
"FC(F)(F)C(=O)CC(=O)C1=CC=CS1","-","5399","1289.0","1-(2-Thenoyl)-3,3,3-trifluoroacetone","-","A73784","-","-","-","42.0 - 43.0","?C","42.5","Celsius"
"C[C@]12CC[C@H]3[C@@H](CCC4=C3C=CC(O)=C4)[C@@H]1C[C@@H](O)[C@@H]2O","-","5553","1291.0","Estriol","-","A73784","-","-","-","281.0 - 282.0","?C","282.0","Celsius"
"OC(=O)C1=CC(Cl)=C(Cl)C=C1","-","5612","1292.0","3,4-DICHLOROBENZOIC ACID","-","A73784","-","-","-","207.0 - 208.0","?C","208.0","Celsius"
"CCOS(=O)(=O)OCC","-","5931","1294.0","Diethyl sulfate","-","A73784","-","-","-","-25.0 - -24.0","?C","-24.5","Celsius"
"CS(C)(=O)=O","-","5978","1295.0","Dimethyl sulfone","-","A73784","-","-","-","109.0 - 110.0","?C","110.0","Celsius"
"CC1=CC=C(C=C1)S(N)(=O)=O","-","6033","1296.0","p-Toluenesulfonamide","-","A73784","-","-","-","138.0 - 139.0","?C","138.0","Celsius"
"CC(C)C1=CC(=C(C)C(Br)=C1O)C1(OS(=O)(=O)C2=CC=CC=C12)C1=CC(C(C)C)=C(O)C(Br)=C1C","-","6208","1297.0","4,4'-(1,1-Dioxido-3H-2,1-benzoxathiole-3,3-diyl)bis(2-bromo-6-isopropyl-3-methylphenol)","-","A73784","-","-","-","200.0 - 201.0","?C","200.0","Celsius"
"CNC(C)=O","-","6334","1298.0","N-methylacetamide","-","A73784","-","-","-","27.0 - 28.0","?C","27.5","Celsius"
"C1=CC=C(C=C1)C1=CC=CC=C1C1=CC=CC=C1","-","6508","1299.0","O-TERPHENYL","-","A73784","-","-","-","56.0 - 57.0","?C","56.5","Celsius"
"CCN1C2=C(C=CC=C2)C2=C1C=CC=C2","-","6575","1300.0","9-Ethyl-9H-carbazole","-","A73784","-","-","-","68.0 - 69.0","?C","68.5","Celsius"
"OC(=O)C1=C2C=CC=CC2=CC=C1","-","6586","1301.0","1-Naphthoic Acid","-","A73784","-","-","-","161.0 - 162.0","?C","162.0","Celsius"
"NC1=CC=C(C=C1)C1=CC=CC=C1","-","6835","1302.0","biphenyl-4-amine","-","A73784","-","-","-","53.0 - 54.0","?C","53.5","Celsius"
"OCC(O)C1=CC=CC=C1","-","6882","1303.0","1-Phenyl-1,2-ethanediol","-","A73784","-","-","-","67.0 - 68.0","?C","67.5","Celsius"
"CC(OC1=C(C)C=C(Cl)C=C1)C(O)=O","-","6886","1304.0","MCPP","-","A73784","-","-","-","94.0 - 95.0","?C","94.5","Celsius"
"O=C(NC1=CC=CC=C1)C1=CC=CC=C1","-","6900","1305.0","Benzanilide","-","A73784","-","-","-","163.0 - 164.0","?C","164.0","Celsius"
"[O-][N+](=O)C1=CC2=C(C=C1)N=CN2","-","6927","1306.0","6-Nitro-1H-benzimidazole","-","A73784","-","-","","208.0","?C","208.0","Celsius"
"CC1=CC(O)=CC=C1O","-","6983","1307.0","2-methylbenzene-1,4-diol","-","A73784","-","-","-","128.0 - 129.0","?C","128.0","Celsius"
"BrCC(Br)CBr","-","7007","1308.0","1,2,3-TRIBROMOPROPANE","-","A73784","-","-","-","16.0 - 17.0","?C","16.5","Celsius"
"ClCC(Cl)CCl","-","7013","1309.0","1,2,3-trichloropropane","-","A73784","-","-","-","-15.0 - -14.0","?C","-14.5","Celsius"
"CC1CCCC1","-","7024","1310.0","Methylcyclopentane","-","A73784","-","-","-","-143.0 - -142.0","?C","-142.0","Celsius"
"CC(C)COC(=O)C(C)C","-","7073","1311.0","Isobutyl isobutyrate","-","A73784","-","-","-","-81.0 - -80.0","?C","-80.5","Celsius"
"OC(=O)C1=CC(O)=CC=C1","-","7142","1312.0","3-hydroxybenzoic_acid","-","A73784","-","-","-","202.0 - 203.0","?C","202.0","Celsius"
"OC(=O)C1=CC(=CC(=C1)[N+]([O-])=O)[N+]([O-])=O","-","7155","1313.0","3,5-DINITROBENZOIC ACID","-","A73784","-","-","-","205.0 - 206.0","?C","206.0","Celsius"
"COC1=CC=C(C=C1N)[N+]([O-])=O","-","7167","1314.0","2-METHOXY-5-NITROANILINE","-","A73784","-","-","-","117.0 - 118.0","?C","118.0","Celsius"
"[O-][N+](=O)C1=CC(C=O)=CC=C1","-","7169","1315.0","m-Nitrobenzaldehyde","-","A73784","-","-","-","58.0 - 59.0","?C","58.5","Celsius"
"CCOC(=O)C1=CC=C(C=C1)[N+]([O-])=O","-","7177","1316.0","ethyl_4-nitrobenzoate","-","A73784","-","-","-","57.0 - 58.0","?C","57.5","Celsius"
"CNC1=CC=C(C=C1)[N+]([O-])=O","-","7203","1317.0","N-methyl-4-nitroaniline","-","A73784","-","-","-","152.0 - 153.0","?C","152.0","Celsius"
"[O-][N+](=O)C1=CC=C(C=C1)[N+]([O-])=O","-","7211","1318.0","P-DINITROBENZENE","-","A73784","-","-","-","173.0 - 174.0","?C","174.0","Celsius"
"CCN1CCOCC1","-","7244","1319.0","4-ETHYLMORPHOLINE","-","A73784","-","-","-","-64.0 - -63.0","?C","-63.5","Celsius"
"C=CCOC1=NC(OCC=C)=NC(OCC=C)=N1","-","7274","1320.0","2,4,6-Tris(allyloxy)-1,3,5-triazine","-","A73784","-","-","-","26.0 - 27.0","?C","26.5","Celsius"
"CC(=O)CC(=O)NC1=CC=CC=C1","-","7311","1321.0","3-Oxo-N-phenylbutanamide","-","A73784","-","-","-","85.0 - 86.0","?C","85.5","Celsius"
"O=CNC1=CC=CC=C1","-","7388","1322.0","N-PHENYLFORMAMIDE","-","A73784","-","-","-","46.0 - 47.0","?C","46.5","Celsius"
"CC(=O)NC1=CC=C(C=C1)[N+]([O-])=O","-","7407","1323.0","N-(4-Nitrophenyl)acetamide","-","A73784","-","-","-","215.0 - 216.0","?C","216.0","Celsius"
"O=C1CCCCCN1","-","7480","1324.0","azepan-2-one","-","A73784","-","-","-","69.0 - 70.0","?C","69.5","Celsius"
"O=C1CCC(=O)O1","-","7634","1325.0","dihydrofuran-2,5-dione","-","A73784","-","-","-","119.0 - 120.0","?C","120.0","Celsius"
"CC1=CC(C)=CC=C1","-","7641","1326.0","m-xylene","-","A73784","-","-","-","-48.0 - -47.0","?C","-47.5","Celsius"
"CCCCCCS","-","7815","1327.0","1-HEXANETHIOL","-","A73784","-","-","-","-81.0 - -80.0","?C","-80.5","Celsius"
"CCCSCCC","-","7827","1328.0","Di-n-propyl sulfide","-","A73784","-","-","-","-103.0 - -102.0","?C","-102.0","Celsius"
"CCCCCCCCCCBr","-","7881","1329.0","1-BROMODECANE","-","A73784","-","-","-","-30.0 - -29.0","?C","-29.5","Celsius"
"CCCCCCCCCC=O","-","7883","1330.0","Decanal","-","A73784","-","-","-","-6.0 - -5.0","?C","-5.5","Celsius"
"CCCCCCCCCCCCCCO","-","7917","1331.0","1-Tetradecanol","-","A73784","-","-","-","39.0 - 40.0","?C","39.5","Celsius"
"OC1=CC=CC=C1C(=O)OC1=CC=CC=C1","-","8058","1332.0","phenyl salicylate","-","A73784","-","-","-","42.0 - 43.0","?C","42.5","Celsius"
"C1=CC2=CC=CC=CC2=C1","-","8876","1333.0","Azulene","-","A73784","-","-","-","99.0 - 100.0","?C","99.5","Celsius"
"C1=CN=CN=C1","-","8903","1334.0","pyrimidine","-","A73784","-","-","-","21.0 - 22.0","?C","21.5","Celsius"
"[O-][N+](=O)C1=CC(=CC(=C1Cl)[N+]([O-])=O)C(F)(F)F","-","9426","1336.0","2-Chloro-1,3-dinitro-5-(trifluoromethyl)benzene","-","A73784","-","-","-","56.0 - 57.0","?C","56.5","Celsius"
"[O-][N+](=O)C1=CC=C(C=C1)C(F)(F)F","-","9438","1337.0","1-Nitro-4-(trifluoromethyl)benzene","-","A73784","-","-","-","39.0 - 40.0","?C","39.5","Celsius"
"CC(=O)NC1=CC=C(Cl)C=C1","-","10411","1338.0","p-Chloroacetanilide","-","A73784","-","-","-","178.0 - 179.0","?C","178.0","Celsius"
"CCCCl","-","10437","1339.0","1-Chloropropane","-","A73784","-","-","-","-123.0 - -122.0","?C","-122.0","Celsius"
"ClCCC#N","-","10498","1340.0","3-chloropropionitrile","-","A73784","-","-","-","-51.0 - -50.0","?C","-50.5","Celsius"
"CCC(C)(C)CC","-","10755","1341.0","3,3-Dimethylpentane","-","A73784","-","-","-","-135.0 - -134.0","?C","-134.0","Celsius"
"CC(C)=C(C)C","-","10776","1342.0","Tetramethylethylene","-","A73784","-","-","-","-75.0 - -74.0","?C","-74.5","Celsius"
"CC(C)C(C)C(C)C","-","10795","1343.0","2,3,4-Trimethylpentane","-","A73784","-","-","-","-110.0 - -109.0","?C","-110.0","Celsius"
"[O-][N+](=O)C1=CC=CC=C1Br","-","10864","1344.0","1-Bromo-2-nitrobenzene","-","A73784","-","-","-","42.0 - 43.0","?C","42.5","Celsius"
"BrC1=CC=C(I)C=C1","-","11038","1345.0","p-Bromoiodobenzene","-","A73784","-","-","-","91.0 - 92.0","?C","91.5","Celsius"
"CCCC(C)(C)O","-","11056","1346.0","2-methyl-2-pentanol","-","A73784","-","-","-","-103.0 - -102.0","?C","-102.0","Celsius"
"CC1(O)CCCCC1","-","11063","1347.0","1-METHYLCYCLOHEXANOL","-","A73784","-","-","-","25.0 - 26.0","?C","25.5","Celsius"
"BrC(C1=CC=CC=C1)(C1=CC=CC=C1)C1=CC=CC=C1","-","11200","1348.0","1,1',1''-(Bromomethanetriyl)tribenzene","-","A73784","-","-","-","153.0 - 154.0","?C","154.0","Celsius"
"OC1=C2C=CC=CC2=C(C=C1[N+]([O-])=O)[N+]([O-])=O","-","11309","1349.0","2,4-Dinitro-1-naphthol","-","A73784","-","-","-","131.0 - 132.0","?C","132.0","Celsius"
"NC1=C(Cl)C=CC=C1Cl","-","11353","1350.0","2,6-DICHLOROANILINE","-","A73784","-","-","-","39.0 - 40.0","?C","39.5","Celsius"
"OC(=O)C1=C(O)C(=CC(=C1)[N+]([O-])=O)[N+]([O-])=O","-","11380","1351.0","2-Hydroxy-3,5-dinitrobenzoic acid","-","A73784","-","-","-","170.0 - 171.0","?C","170.0","Celsius"
"[O-][N+](=O)C1=CC=CC=C1C#N","-","11428","1352.0","o-Nitrobenzonitrile","-","A73784","-","-","-","108.0 - 109.0","?C","108.0","Celsius"
"CC(C)(C)OOC(=O)C1=CC=CC=C1","-","11472","1353.0","tert-butyl benzenecarboperoxoate","-","A73784","-","-","-","7.0 - 8.0","?C","7.5","Celsius"
"CC1=CC(Br)=CC=C1Br","-","11511","1354.0","2,5-DIBROMOTOLUENE","-","A73784","-","-","-","5.0 - 6.0","?C","5.5","Celsius"
"COC(=O)C1=CC=CC(Br)=C1","-","11573","1355.0","METHYL 3-BROMOBENZOATE","-","A73784","-","-","-","32.0 - 33.0","?C","32.5","Celsius"
"OC(=O)C1=CC=CC(C=O)=C1","-","11580","1356.0","3-Carboxybenzaldehyde","-","A73784","-","-","-","174.0 - 175.0","?C","174.0","Celsius"
"[O-][N+](=O)C1=CC(=CC=C1)C#N","-","11582","1357.0","M-NITROBENZONITRILE","-","A73784","-","-","-","116.0 - 117.0","?C","116.0","Celsius"
"COC(=O)C1=CC=C(C=C1)[N+]([O-])=O","-","11586","1358.0","methyl_4-nitrobenzoate","-","A73784","-","-","-","95.0 - 96.0","?C","95.5","Celsius"
"N#CC1=CC(=CC=C1)C#N","-","11773","1359.0","1,3-DICYANOBENZENE","-","A73784","-","-","-","161.0 - 162.0","?C","162.0","Celsius"
"CCCC1=CC=C(O)C=C1","-","12060","1360.0","4-n-Propylphenol","-","A73784","-","-","-","21.0 - 22.0","?C","21.5","Celsius"
"N#CCCC1=CC=CC=C1","-","12061","1361.0","3-Phenylpropionitrile","-","A73784","-","-","-","-2.0 - -1.0","?C","-1.5","Celsius"
"CC(C)CC=C","-","12201","1362.0","4-methyl-1-pentene","-","A73784","-","-","-","-154.0 - -153.0","?C","-154.0","Celsius"
"OC(=O)CCCCCCCCCCC(O)=O","-","12213","1363.0","DODECANEDIOIC ACID","-","A73784","-","-","-","128.0 - 129.0","?C","128.0","Celsius"
"CCCCCCCCCCCBr","-","12221","1364.0","1-BROMOUNDECANE","-","A73784","-","-","-","-10.0 - -9.0","?C","-9.5","Celsius"
"CC1=NC(=CN1)[N+]([O-])=O","-","12236","1365.0","2-METHYL-4-NITRO-1H-IMIDAZOLE","-","A73784","-","-","-","252.0 - 253.0","?C","252.0","Celsius"
"O=C(C1CCCCC1)C1=CC=CC=C1","-","12307","1366.0","cyclohexyl_phenyl_ketone","-","A73784","-","-","-","55.0 - 56.0","?C","55.5","Celsius"
"CCC(C)C=C","-","12429","1367.0","3-METHYL-1-PENTENE","-","A73784","-","-","-","-154.0 - -153.0","?C","-154.0","Celsius"
"CN1CCCC1=O","-","12814","1368.0","1-methylpyrrolidin-2-one","-","A73784","-","-","-","-24.0 - -23.0","?C","-23.5","Celsius"
"NC1=CC=C(C=C1)C#N","-","12822","1369.0","4-Aminobenzonitrile","-","A73784","-","-","-","84.0 - 85.0","?C","84.5","Celsius"
"OC(C(F)(F)F)C(F)(F)F","-","12941","1370.0","1,1,1,3,3,3-HEXAFLUOROPROPAN-2-OL","-","A73784","-","-","-","-4.0 - -3.0","?C","-3.5","Celsius"
"CCCCCCCCCCCCCCC(O)=O","-","13249","1371.0","pentadecanoic acid","-","A73784","-","-","-","52.0 - 53.0","?C","52.5","Celsius"
"CC(C)CCCCC(C)C","-","13451","1372.0","2,7-DIMETHYLOCTANE","-","A73784","-","-","-","-55.0 - -54.0","?C","-54.5","Celsius"
"CN(C)C1=CC=NC=C1","-","13646","1373.0","N,N-Dimethylpyridin-4-amine","-","A73784","-","-","-","111.0 - 112.0","?C","112.0","Celsius"
"COC(=O)C1=CC=C(Cl)C=C1","-","13669","1374.0","methyl_4-chlorobenzoate","-","A73784","-","-","-","43.0 - 44.0","?C","43.5","Celsius"
"COC(=O)C1=CC=C(C=O)C=C1","-","14559","1375.0","METHYL 4-FORMYLBENZOATE","-","A73784","-","-","-","60.0 - 61.0","?C","60.5","Celsius"
"OC(=O)CC1=CC=CC(Cl)=C1","-","15092","1376.0","m-chlorophenylacetic_acid","-","A73784","-","-","-","78.0 - 79.0","?C","78.5","Celsius"
"COC1=CC(=CC(OC)=C1OC)C#N","-","15105","1377.0","3,4,5-Trimethoxybenzonitrile","-","A73784","-","-","-","93.0 - 94.0","?C","93.5","Celsius"
"OCCSSCCO","-","15117","1378.0","Bis(2-hydroxyethyl) disulfide","-","A73784","-","-","-","25.0 - 26.0","?C","25.5","Celsius"
"COC1=C(Cl)C(Cl)=CC=C1","-","15310","1379.0","2,3-Dichloroanisole","-","A73784","-","-","-","31.0 - 32.0","?C","31.5","Celsius"
"BrC1=CC=CC=C1C1=CC=CC=C1","-","15494","1380.0","2-Bromobiphenyl","-","A73784","-","-","-","1.0 - 2.0","?C","1.5","Celsius"
"ClC1=CC=CC=C1C(Cl)(Cl)Cl","-","15636","1381.0","2-CHLOROBENZOTRICHLORIDE","-","A73784","-","-","-","29.0 - 30.0","?C","29.5","Celsius"
"ClC1=NC2=C(C=CC=C2)N=C1Cl","-","15796","1382.0","2,3-DICHLOROQUINOXALINE","-","A73784","-","-","-","152.0 - 153.0","?C","152.0","Celsius"
"COC1=CC(OC)=C(C=O)C=C1OC","-","19331","1383.0","2,4,5-Trimethoxybenzaldehyde","-","A73784","-","-","-","113.0 - 114.0","?C","114.0","Celsius"
"OC(=O)C1=C(C(Cl)=CC=C1)[N+]([O-])=O","-","19663","1384.0","3-chloro-2-nitrobenzoic_acid","-","A73784","-","-","-","237.0 - 238.0","?C","238.0","Celsius"
"ClS(Cl)=O","-","22797","1385.0","Thionyl dichloride","-","A73784","-","-","-","-105.0 - -104.0","?C","-104.0","Celsius"
"CCC(C)N","-","23255","1386.0","2-Aminobutane","-","A73784","-","-","-","-105.0 - -104.0","?C","-104.0","Celsius"
"CC(C)C1=NC=C(N1C)[N+]([O-])=O","-","25097","1387.0","IPRONIDAZOLE","-","A73784","-","-","-","60.0 - 61.0","?C","60.5","Celsius"
"BrC1=CC=C(CC#N)C=C1","-","25968","1388.0","p-Bromophenylacetonitrile","-","A73784","-","-","-","47.0 - 48.0","?C","47.5","Celsius"
"[O-][N+](=O)C1=C(Cl)C=C(Cl)C=C1Cl","-","27183","1391.0","1,3,5-Trichloro-2-nitrobenzene","-","A73784","-","-","-","71.0 - 72.0","?C","71.5","Celsius"
"CCC(=O)OC(=O)CC","-","29003","1393.0","Propanoic anhydride","-","A73784","-","-","-","-45.0 - -44.0","?C","-44.5","Celsius"
"CCCCCCCC#N","-","29026","1394.0","Octanenitrile","-","A73784","-","-","-","-46.0 - -45.0","?C","-45.5","Celsius"
"CCCCOP(=O)(OCCCC)OCCCC","-","29090","1395.0","TRIBUTYL PHOSPHATE","-","A73784","-","-","-","-80.0 - -79.0","?C","-79.5","Celsius"
"COC1=CC(Cl)=CC(Cl)=C1","-","33621","1397.0","3,5-DICHLOROANISOLE","-","A73784","-","-","-","40.0 - 41.0","?C","40.5","Celsius"
"COC1=CC(CO)=CC=C1O","-","56139","1398.0","4-(Hydroxymethyl)-2-methoxyphenol","-","A73784","-","-","-","114.0 - 115.0","?C","114.0","Celsius"
"CCN(CC)C1=CC=C(C=O)C=C1","-","60462","1399.0","p-DIETHYLAMINOBENZALDEHYDE","-","A73784","-","-","-","40.0 - 41.0","?C","40.5","Celsius"
"O=C(C1=CC=CS1)C1=CC=CC=C1","-","60596","1400.0","Phenyl(2-thienyl)methanone","-","A73784","-","-","-","56.0 - 57.0","?C","56.5","Celsius"
"N1C=CN=N1","-","60839","1401.0","1H-1,2,3-Triazole","-","A73784","-","-","-","23.0 - 24.0","?C","23.5","Celsius"
"FC1=C(F)C(F)=C(C(F)=C1F)C1=C(F)C(F)=C(F)C(F)=C1F","-","61266","1402.0","Decafluorobiphenyl","-","A73784","-","-","-","67.0 - 68.0","?C","67.5","Celsius"
"CC(C)C(N)=O","-","61707","1404.0","Isobutyramide","-","A73784","-","-","-","128.0 - 129.0","?C","128.0","Celsius"
"COC1=C(OC)C(=O)C(C)=CC1=O","-","62289","1406.0","2,3-Dimethoxy-5-methyl-1,4-benzoquinone","-","A73784","-","-","-","58.5 - 59.5","?C","59.0","Celsius"
"NC(=O)C1=CC=CC=C1Cl","-","62328","1407.0","o-Chlorobenzamide","-","A73784","-","-","-","142.0 - 143.0","?C","142.0","Celsius"
"OC(=O)C1=CC=C(C=C1)C(=O)C1=CC=CC=C1","-","62362","1408.0","4-Benzoylbenzoic acid","-","A73784","-","-","-","198.0 - 199.0","?C","198.0","Celsius"
"CC1=CC=CC(=C1)C(N)=O","-","62466","1409.0","m-Toluamide","-","A73784","-","-","-","95.0 - 96.0","?C","95.5","Celsius"
"N#CCC1=CC=C(CC#N)C=C1","-","62536","1410.0","1,4-Phenylenediacetonitrile","-","A73784","-","-","-","95.0 - 96.0","?C","95.5","Celsius"
"OCC1=CC(CO)=CC=C1","-","62582","1411.0","1,3-Benzenedimethanol","-","A73784","-","-","-","57.0 - 58.0","?C","57.5","Celsius"
"N#CCC1=CC(CC#N)=CC=C1","-","62583","1412.0","1,3-Phenylenediacetonitrile","-","A73784","-","-","-","33.0 - 34.0","?C","33.5","Celsius"
"NC(=O)C1=CC=C(Br)C=C1","-","62884","1414.0","p-bromobenzamide","-","A73784","-","-","-","191.0 - 192.0","?C","192.0","Celsius"
"COC1=CC=C(C=C1OC)[N+]([O-])=O","-","62928","1415.0","1,2-Dimethoxy-4-nitrobenzene","-","A73784","-","-","-","97.0 - 98.0","?C","97.5","Celsius"
"COC1=CC(OC)=C(C=O)C(OC)=C1","-","63211","1416.0","2,4,6-Trimethoxybenzaldehyde","-","A73784","-","-","-","120.0 - 121.0","?C","120.0","Celsius"
"FC1=C(F)C(F)=C(C(=O)C2=CC=CC=C2)C(F)=C1F","-","66396","1419.0","(pentafluorophenyl)(phenyl)methanone","-","A73784","-","-","-","37.0 - 38.0","?C","37.5","Celsius"
"CC1(O)CCCC1","-","66464","1420.0","1-Methylcyclopentanol","-","A73784","-","-","-","36.0 - 37.0","?C","36.5","Celsius"
"OC(=O)CC1=CC=C(Br)C=C1","-","67229","1421.0","4-Bromophenylacetic acid","-","A73784","-","-","-","116.0 - 117.0","?C","116.0","Celsius"
"CCOC1=CC=CC=C1OCC","-","67466","1422.0","1,2-DIETHOXYBENZENE","-","A73784","-","-","-","43.0 - 44.0","?C","43.5","Celsius"
"NC(=O)C1=CC=C(N)C=C1","-","68568","1423.0","p-aminobenzamide","-","A73784","-","-","-","182.0 - 183.0","?C","182.0","Celsius"
"NC(=O)C1=CC=CC=C1Br","-","70021","1424.0","o-Bromobenzamide","-","A73784","-","-","-","160.0 - 161.0","?C","160.0","Celsius"
"COC1=CC=CC(OC)=C1C","-","72054","1425.0","2,6-dimethoxytoluene","-","A73784","-","-","-","39.0 - 40.0","?C","39.5","Celsius"
"CC(=O)C1=CC=CC(=C1)C#N","-","72466","1426.0","3-Acetylbenzonitrile","-","A73784","-","-","-","98.0 - 99.0","?C","98.5","Celsius"
"SCC1=CC=C(Cl)C=C1","-","72625","1427.0","p-chlorobenzyl_mercaptan","-","A73784","-","-","-","19.0 - 20.0","?C","19.5","Celsius"
"COC(=O)NN","-","72718","1428.0","Methyl carbazate","-","A73784","-","-","-","72.0 - 73.0","?C","72.5","Celsius"
"COC1=CC(OC)=CC(Cl)=C1","-","73537","1429.0","5-Chloro-1,3-dimethoxybenzene","-","A73784","-","-","-","34.0 - 35.0","?C","34.5","Celsius"
"CC1=CC(C)=C(C)C(CCl)=C1C","-","73945","1430.0","3-(Chloromethyl)-1,2,4,5-tetramethylbenzene","-","A73784","-","-","-","69.5 - 70.5","?C","70.0","Celsius"
"COC1=CC(=CC=C1)C(N)=O","-","88942","1431.0","m-methoxybenzamide","-","A73784","-","-","-","133.0 - 134.0","?C","134.0","Celsius"
"OCC1=CC=CC=C1I","-","96816","1432.0","o-iodobenzyl_alcohol","-","A73784","-","-","-","91.0 - 92.0","?C","91.5","Celsius"
"CC(=O)OC1=CC=C(C=C1)C1=CC=CC=C1","-","306959","1433.0","4-Acetoxybiphenyl","-","A73784","-","-","-","88.0 - 89.0","?C","88.5","Celsius"
"CCCC1=CC(O)=NC(S)=N1","-","571424","1435.0","6-propyl-2-sulfanylpyrimidin-4-ol","-","A73784","-","-","-","219.0 - 220.0","?C","220.0","Celsius"
"S=C1N=CNC2=C1NC=N2","-","580869","1436.0","6-Mercaptopurine","-","A73784","-","-","-","313.0 - 314.0","?C","314.0","Celsius"
"CN1\C(=C(/O)NC2=NC=CC=C2)C(=O)C2=C(C=CC=C2)S1(=O)=O","-","4444107","1439.0","Piroxicam","-","A73784","-","-","-","198.0 - 199.0","?C","198.0","Celsius"
"ClC1=C(Cl)[C@]2(Cl)[C@@H]3[C@@H]4C[C@@H]([C@H]5O[C@@H]45)[C@@H]3[C@@]1(Cl)C2(Cl)Cl","-","10292746","1441.0","(1r,2s,3s,6r,7r,8s,9s,11r)-3,4,5,6,13,13-hexachloro-10-oxapentacyclo[6.3.1.1~3,6~.0~2,7~.0~9,11~]tridec-4-ene","-","A73784","-","-","-","175.0 - 176.0","?C","176.0","Celsius"
"NC(=O)C1=CC(=CC=C1)[N+]([O-])=O","-","11202219","1442.0","3-Nitrobenzamide","-","A73784","-","-","-","142.0 - 143.0","?C","142.0","Celsius"
"NCCO","-","13835336","1443.0","2-aminoethanol","-","A73784","-","-","-","10.0 - 11.0","?C","10.5","Celsius"
"OCCNCCO","-","13835604","1444.0","2,2'-Iminodiethanol","-","A73784","-","-","-","28.0 - 29.0","?C","28.5","Celsius"
"OCCN(CCO)CCO","-","13835630","1445.0","2,2',2''-Nitrilotriethanol","-","A73784","-","-","-","19.5 - 20.5","?C","20.0","Celsius"
"ClCCCl","-","13837650","1446.0","1,2-dichloroethane","-","A73784","-","-","-","-36.0 - -35.0","?C","-35.5","Celsius"
"OCCCO","-","13839553","1447.0","1,3-PROPANEDIOL","-","A73784","-","-","-","-27.0 - -26.0","?C","-26.5","Celsius"