"SMILES","CASRN","EXTERNALID","N","NAME","NAME","ARTICLEID","PUBMEDID","PAGE","TABLE","Melting Point {measured}","UNIT {Melting Point}","Melting Point {measured, converted}","UNIT {Melting Point}"
"OC(=O)C1=CC(Cl)=CC=C1O","-","9075","2530.0","5-chlorosalicylic_acid","-","A73784","-","-","-","171.0 - 174.0","?C","172.0","Celsius"
"NC(=N)NC#N","-","9611","2531.0","1-Cyanoguanidine","-","A73784","-","-","-","208.0 - 211.0","?C","210.0","Celsius"
"CC1CCC2CC1C2(C)C","-","9724","2532.0","pinane, endo exo","-","A73784","-","-","-","-53.0 - -50.0","?C","-51.5","Celsius"
"C1C2=CC=CC=C2CC2=CC=CC=C12","-","11446","2533.0","9,10-dihydroanthracene","-","A73784","-","-","-","108.0 - 111.0","?C","110.0","Celsius"
"COC1=CC=C(C=C1)C1=CC=CC=C1","-","11449","2534.0","4-METHOXYBIPHENYL","-","A73784","-","-","-","88.0 - 91.0","?C","89.5","Celsius"
"OC(=O)CC1=CC=CC=C1O","-","11476","2535.0","2-Hydroxyphenylacetic acid","-","A73784","-","-","-","146.0 - 149.0","?C","148.0","Celsius"
"NC1=CC=CC=C1I","-","11500","2536.0","o-Iodoaniline","-","A73784","-","-","-","55.0 - 58.0","?C","56.5","Celsius"
"OC1=C(Br)C=C(Br)C=C1","-","11510","2537.0","2,4-Dibromophenol","-","A73784","-","-","-","37.0 - 40.0","?C","38.5","Celsius"
"OC(=O)C1=CC=C(I)C=C1","-","11588","2538.0","p-iodobenzoic_acid","-","A73784","-","-","-","270.0 - 273.0","?C","272.0","Celsius"
"BrC1=CC=C(C=C1)C#N","-","11662","2539.0","p-Bromobenzonitrile","-","A73784","-","-","-","111.0 - 114.0","?C","112.0","Celsius"
"ClC1=CC=C(C=C1)C#N","-","11663","2540.0","p-Chlorobenzonitrile","-","A73784","-","-","-","92.0 - 95.0","?C","93.5","Celsius"
"CCCCCCCCCCCCCCCCCCCCCC","-","11899","2541.0","DOCOSANE","-","A73784","-","-","-","42.0 - 45.0","?C","43.5","Celsius"
"NC1=CC=C(Cl)C(=C1)[N+]([O-])=O","-","11967","2542.0","4-Chloro-3-nitroaniline","-","A73784","-","-","-","100.0 - 103.0","?C","102.0","Celsius"
"CCCCCCCCCCCCC(O)=O","-","12013","2543.0","TRIDECANOIC ACID","-","A73784","-","-","-","41.5 - 44.5","?C","43.0","Celsius"
"OC(=O)C1=CC=C(O1)[N+]([O-])=O","-","12057","2544.0","5-Nitro-2-furoic acid","-","A73784","-","-","-","184.0 - 187.0","?C","186.0","Celsius"
"NC1=CC=C(Cl)C=C1C(=O)C1=CC=CC=C1","-","12339","2545.0","(2-amino-5-chlorophenyl)(phenyl)methanone","-","A73784","-","-","-","96.0 - 99.0","?C","97.5","Celsius"
"COC1=CC=C2N=C(N)SC2=C1","-","14869","2546.0","6-methoxy-1,3-benzothiazol-2-amine","-","A73784","-","-","-","163.0 - 166.0","?C","164.0","Celsius"
"[O-][N+](=O)C1=CC(=CC=C1)C1=CC=CC=C1","-","15596","2547.0","3-nitrobiphenyl","-","A73784","-","-","-","59.0 - 62.0","?C","60.5","Celsius"
"OC(=O)C1=C(Cl)C(=CC=C1)[N+]([O-])=O","-","18716","2548.0","2-chloro-3-nitrobenzoic_acid","-","A73784","-","-","-","181.0 - 184.0","?C","182.0","Celsius"
"NC1=CC(=CC=C1Cl)[N+]([O-])=O","-","21272","2549.0","2-chloro-5-nitroaniline","-","A73784","-","-","-","118.0 - 121.0","?C","120.0","Celsius"
"OCC1=CC=CC=C1Cl","-","26799","2550.0","2-CHLOROBENZYL ALCOHOL","-","A73784","-","-","-","70.0 - 73.0","?C","71.5","Celsius"
"CC(C)C1=CC(=C(C)C=C1O)C1(OC(=O)C2=CC=CC=C12)C1=CC(C(C)C)=C(O)C=C1C","-","29054","2551.0","3,3-Bis(4-hydroxy-5-isopropyl-2-methylphenyl)-2-benzofuran-1(3H)-one","-","A73784","-","-","-","250.0 - 253.0","?C","252.0","Celsius"
"OC(=O)C1=CC=C(C=C1)C1=CC=CC=C1","-","60090","2552.0","Biphenyl-4-carboxylic acid","-","A73784","-","-","-","225.0 - 228.0","?C","226.0","Celsius"
"COC1=CC=C(OC)C(C=O)=C1","-","60092","2553.0","2,5-Dimethoxybenzaldehyde","-","A73784","-","-","-","49.0 - 52.0","?C","50.5","Celsius"
"COC1=CC(=O)C=C(OC)C1=O","-","61560","2554.0","2,6-Dimethoxy-1,4-benzoquinone","-","A73784","-","-","-","253.0 - 256.0","?C","254.0","Celsius"
"COC1=CC=C(C=O)C(OC)=C1","-","62390","2555.0","2,4-dimethoxybenzaldehyde","-","A73784","-","-","-","69.0 - 72.0","?C","70.5","Celsius"
"COC1=CC=C(I)C=C1","-","62877","2556.0","p-Iodoanisole","-","A73784","-","-","-","50.0 - 53.0","?C","51.5","Celsius"
"FC(F)(F)C1=CC=C(C=C1)C(=O)C1=CC=CC=C1","-","62966","2557.0","4-(Trifluoromethyl)benzophenone","-","A73784","-","-","-","115.0 - 118.0","?C","116.0","Celsius"
"OC(=O)C1=CC=CC=C1C1=CC=CC=C1","-","63538","2558.0","Biphenyl-2-carboxylic acid","-","A73784","-","-","-","112.0 - 115.0","?C","114.0","Celsius"
"BrC1=CC=C(C=C1)C(=O)C1=CC=C(Br)C=C1","-","65700","2559.0","4,4'-Dibromobenzophenone","-","A73784","-","-","-","174.0 - 177.0","?C","176.0","Celsius"
"CC(=O)C1=CC=C(Cl)C(Cl)=C1","-","68350","2560.0","3,4-dichloroacetophenone","-","A73784","-","-","-","73.0 - 76.0","?C","74.5","Celsius"
"COC(=O)C1=CC=CC(O)=C1","-","79453","2561.0","methyl_3-hydroxybenzoate","-","A73784","-","-","-","71.0 - 74.0","?C","72.5","Celsius"
"COC1=CC=C2N=CC=C([C@@H](O)[C@@H]3C[C@@H]4CC[N@]3C[C@@H]4C=C)C2=C1","-","84989","2562.0","Quinine","-","A73784","-","-","-","174.0 - 177.0","?C","176.0","Celsius"
"OC(=O)\C=C\C1=CC=CC(Br)=C1","-","678734","2563.0","m-bromocinnamic_acid","-","A73784","-","-","-","177.0 - 180.0","?C","178.0","Celsius"
"O=C(\C=C\C1=CC=C2C=CC=CC2=C1)/C=C/C1=CC=C2C=CC=CC2=C1","-","4523376","2564.0","(1e,4e)-1,5-di(2-naphthyl)-1,4-pentadien-3-one","-","A73784","-","-","-","242.0 - 245.0","?C","244.0","Celsius"
"OC(=O)CBr","-","10301338","2565.0","Bromoacetic Acid","-","A73784","-","-","-","47.0 - 50.0","?C","48.5","Celsius"
"OCCOCCOCCO","-","13835895","2566.0","2,2'-[ethane-1,2-diylbis(oxy)]diethanol","-","A73784","-","-","-","-7.0 - -4.0","?C","-5.5","Celsius"
"CCC1=CC=CC=C1N","-","13860641","2567.0","2-Ethylaniline","-","A73784","-","-","-","-47.0 - -44.0","?C","-45.5","Celsius"
"ClC1=CC=C(I)C=C1","-","13868660","2568.0","p-Chloroiodobenzene","-","A73784","-","-","-","54.0 - 57.0","?C","55.5","Celsius"
"OC1=CC(Br)=CC=C1","-","13875441","2569.0","m-Bromophenol","-","A73784","-","-","-","30.0 - 33.0","?C","31.5","Celsius"
"CCCCCCC1=CC=C(O)C=C1O","-","21106121","2570.0","4-hexylbenzene-1,3-diol","-","A73784","-","-","-","65.0 - 68.0","?C","66.5","Celsius"
"CC1=CC(C)=NC(C)=C1","-","21106174","2571.0","2,4,6-Trimethylpyridine","-","A73784","-","-","-","-46.0 - -43.0","?C","-44.5","Celsius"
"NC1=CC=CC=C1Br","-","21111816","2572.0","o-Bromoaniline","-","A73784","-","-","-","29.0 - 32.0","?C","30.5","Celsius"
"CC1=CC(C)=C(Br)C(C)=C1","-","21112244","2573.0","2-Bromomesitylene","-","A73784","-","-","-","-1.0 - 2.0","?C","0.5","Celsius"
"CC(C)(C)C1=CC=C(Br)C=C1","-","21171393","2574.0","1-Bromo-4-tert-butylbenzene","-","A73784","-","-","-","16.0 - 19.0","?C","17.5","Celsius"
"NC1=CC=CC=C1C(O)=O","-","222","2575.0","2-aminobenzoic acid","-","A73784","-","-","-","144.0 - 147.0","?C","146.0","Celsius"
"CCCC=O","-","256","2576.0","Butyraldehyde","-","A73784","-","-","-","-99.0 - -96.0","?C","-97.5","Celsius"
"[O-][N+](=O)C1=CC=C(C=O)C=C1","-","526","2577.0","p-Nitrobenzaldehyde","-","A73784","-","-","-","105.0 - 108.0","?C","106.0","Celsius"
"CN1C(C)=NC=C1[N+]([O-])=O","-","2980","2578.0","dimetridazole","-","A73784","-","-","-","137.0 - 140.0","?C","138.0","Celsius"
"C[C@]12CC(=O)[C@H]3[C@@H](CCC4=CC(=O)C=C[C@]34C)[C@@H]1CC[C@]2(O)C(=O)CO","-","5656","2580.0","Prednisone","-","A73784","-","-","-","234.0 - 237.0","?C","236.0","Celsius"
"OC(=O)C1=CC=C(Cl)C=C1","-","6079","2582.0","4-Chlorobenzoic Acid","-","A73784","-","-","-","240.0 - 243.0","?C","242.0","Celsius"
"CI","-","6088","2583.0","iodomethane","-","A73784","-","-","-","-67.0 - -64.0","?C","-65.5","Celsius"
"CCCCC1(CC)C(=O)NC(=O)NC1=O","-","6229","2584.0","Butethal","-","A73784","-","-","-","125.5 - 128.5","?C","127.0","Celsius"
"OC(C1=CC=CC=C1)C1=CC=CC=C1","-","6770","2585.0","Diphenylmethanol","-","A73784","-","-","-","66.0 - 69.0","?C","67.5","Celsius"
"CC(=O)C1=CC=C2C=CC=CC2=C1","-","6855","2586.0","2'-Acetonaphthone","-","A73784","-","-","-","53.0 - 56.0","?C","54.5","Celsius"
"COC(=O)C1=CC=CC=C1","-","6883","2587.0","methyl benzoate","-","A73784","-","-","-","-15.0 - -12.0","?C","-13.5","Celsius"
"CC1=CC=C(C=C1)S(Cl)(=O)=O","-","7119","2588.0","4-Methylbenzenesulfonyl chloride","-","A73784","-","-","-","68.0 - 71.0","?C","69.5","Celsius"
"CCCCCCC(O)=O","-","7803","2589.0","HEPTANOIC ACID","-","A73784","-","-","-","-9.0 - -6.0","?C","-7.5","Celsius"
"CCCCCCCCCC(C)=O","-","7871","2590.0","Undecan-2-one","-","A73784","-","-","-","12.0 - 15.0","?C","13.5","Celsius"
"CCCCOCCCC","-","8569","2591.0","dibutyl ether","-","A73784","-","-","-","-98.0 - -95.0","?C","-96.5","Celsius"
"CC(=O)NC1=CC=CC=C1O","-","11477","2592.0","N-(2-hydroxyphenyl)acetamide","-","A73784","-","-","-","205.0 - 208.0","?C","206.0","Celsius"
"COC(=O)OC","-","11526","2593.0","Dimethyl carbonate","-","A73784","-","-","-","1.0 - 4.0","?C","2.5","Celsius"
"ICCI","-","11723","2594.0","1,2-DIIODOETHANE","-","A73784","-","-","-","80.0 - 83.0","?C","81.5","Celsius"
"[O-][N+](=O)C1=CC=C(I)C=C1","-","11982","2595.0","1-Iodo-4-nitrobenzene","-","A73784","-","-","-","173.0 - 176.0","?C","174.0","Celsius"
"CC(=O)C1=CC=C(I)C=C1","-","65701","2596.0","4'-Iodoacetophenone","-","A73784","-","-","-","83.0 - 86.0","?C","84.5","Celsius"
"OCCCCCCO","-","13839416","2597.0","1,6-HEXANEDIOL","-","A73784","-","-","-","42.0 - 45.0","?C","43.5","Celsius"
"[O-][N+](=O)C1=CC=C(Cl)C(=C1)[N+]([O-])=O","-","13868426","2598.0","1-Chloro-2,4-dinitrobenzene","-","A73784","-","-","-","50.0 - 53.0","?C","51.5","Celsius"
"CC1=CC(Cl)=C(C)C=C1Cl","-","13868642","2599.0","2,5-Dichloro-p-xylene","-","A73784","-","-","-","68.0 - 71.0","?C","69.5","Celsius"
"OC1=CC=C(Cl)C=C1","-","13875219","2600.0","4-Chlorophenol","-","A73784","-","-","-","41.0 - 44.0","?C","42.5","Celsius"
"O=C(CC1=CC=CC=C1)CC1=CC=CC=C1","-","21105887","2601.0","1,3-Diphenylacetone","-","A73784","-","-","-","32.0 - 35.0","?C","33.5","Celsius"
"[O-][N+](=O)C1=CC(Cl)=CC=C1","-","21106013","2602.0","1-Chloro-3-nitrobenzene","-","A73784","-","-","-","43.0 - 46.0","?C","44.5","Celsius"
"CC(=O)C1=CC=CC(=C1)[N+]([O-])=O","-","21106145","2603.0","1-(3-Nitrophenyl)ethanone","-","A73784","-","-","-","78.0 - 81.0","?C","79.5","Celsius"
"CCCC(O)=O","-","259","2604.0","butyric acid","-","A73784","-","-","-","-8.0 - -5.0","?C","-6.5","Celsius"
"OC1=CC=C(C=C1)[N+]([O-])=O","-","955","2605.0","p-Nitrophenol","-","A73784","-","-","-","112.0 - 115.0","?C","114.0","Celsius"
"CCCOC(C)=O","-","7706","2607.0","Propyl acetate","-","A73784","-","-","-","-95.0 - -92.0","?C","-93.5","Celsius"
"OC(=O)C1=CC=CC=C1Cl","-","8071","2608.0","2-Chlorobenzoic Acid","-","A73784","-","-","-","139.0 - 142.0","?C","140.0","Celsius"
"CCCCCCCCCO","-","8574","2609.0","Nonan-1-ol","-","A73784","-","-","-","-7.0 - -4.0","?C","-5.5","Celsius"
"O=C1C2=CC=CC=C2SC2=CC=CC=C12","-","9873","2610.0","Thioxanthen-9-one","-","A73784","-","-","-","209.0 - 212.0","?C","210.0","Celsius"
"C1=CC=C(C=C1)C#CC1=CC=CC=C1","-","9961","2611.0","1,1'-ethyne-1,2-diyldibenzene","-","A73784","-","-","-","60.0 - 63.0","?C","61.5","Celsius"
"OC(=O)C1CC1","-","14890","2612.0","CYCLOPROPANECARBOXYLIC ACID","-","A73784","-","-","-","15.5 - 18.5","?C","17.0","Celsius"
"CC1=CC(O)=CC(C)=C1","-","13839110","2613.0","3,5-Dimethylphenol","-","A73784","-","-","-","62.5 - 65.5","?C","64.0","Celsius"
"O=C(OCC1=CC=CC=C1)C1=CC=CC=C1","-","13856959","2614.0","Benzyl benzoate","-","A73784","-","-","-","18.0 - 21.0","?C","19.5","Celsius"
"CC1=CC=C(C=C1)[N+]([O-])=O","-","13863774","2615.0","1-Methyl-4-nitrobenzene","-","A73784","-","-","-","51.0 - 54.0","?C","52.5","Celsius"
"OC(=O)CCC(O)=O","-","1078","2616.0","succinic acid","-","A73784","-","-","-","185.0 - 188.0","?C","186.0","Celsius"
"OC(C(=O)C1=CC=CC=C1)C1=CC=CC=C1","-","8093","2618.0","benzoin","-","A73784","-","-","-","134.0 - 137.0","?C","136.0","Celsius"
"OC1=C(Cl)C=C(Cl)C=C1","-","8140","2619.0","2,4-dichlorophenol","-","A73784","-","-","-","42.0 - 45.0","?C","43.5","Celsius"
"OC1=CC=CC(Cl)=C1Cl","-","10857","2620.0","2,3-Dichlorophenol","-","A73784","-","-","-","56.0 - 59.0","?C","57.5","Celsius"
"C1=CC=C2C(=C1)C=C1C=CC3=C4C(C=CC2=C14)=CC=C3","-","2246","2621.0","benzo[a]pyrene","-","A73784","-","-","-","176.0 - 179.0","?C","178.0","Celsius"
"OC(=O)CC1=CC=CC=C1","-","10181341","2622.0","phenylacetic_acid","-","A73784","-","-","-","76.0 - 79.0","?C","77.5","Celsius"
"C1=CC2=CC3=CC=CC=C3C=C2C=C1","-","8111","2623.0","Anthracene","-","A73784","-","-","-","215.0 - 218.0","?C","216.0","Celsius"
"C(=C/C1=CC=CC=C1)\C1=CC=CC=C1","-","553649","2624.0","trans-Stilbene","-","A73784","-","-","-","123.0 - 126.0","?C","124.0","Celsius"
"CN1C=NC2=C1C(=O)N(C)C(=O)N2C","-","2424","2625.0","Caffeine","-","A73784","-","-","-","235.0 - 238.0","?C","236.0","Celsius"
"CCCC=C","-","7713","2627.0","Pent-1-ene","-","A73784","-","-","-","-165.2 - -162.12","?C","-164.0","Celsius"
"CCI","-","6100","2628.0","iodoethane","-","A73784","-","-","-","-111.1 - -108.0","?C","-110.0","Celsius"
"CCCCCCOCCO","-","7878","2629.0","2-(n-hexyloxy)ethanol","-","A73784","-","-","-","-45.1 - -42.0","?C","-43.5","Celsius"
"CCCCCCCCCCCCCCCCCCN","-","15016","2630.0","octadecan-1-amine","-","A73784","-","-","-","52.9 - 56.0","?C","54.5","Celsius"
"CCC(C)=CC","-","557853","2631.0","3-Methyl-trans-2-pentene","-","A73784","-","-","-","-138.0 - -134.8","?C","-136.0","Celsius"
"CC1=CC=CC=C1O","-","13835772","2632.0","o-cresol","-","A73784","-","-","-","29.8 - 33.0","?C","31.4","Celsius"
"CCCCCCCCCCCC(=O)CCCCCCCCCCC","-","10426","2633.0","12-Tricosanone","-","A73784","-","-","-","67.0 - 70.2","?C","68.6","Celsius"
"CCC(N)=O","-","6330","2634.0","PROPIONAMIDE","-","A73784","-","-","-","78.0 - 81.3","?C","79.7","Celsius"
"CC1=CC=CC=N1","-","13839199","2635.0","2-METHYLPYRIDINE","-","A73784","-","-","-","-70.0 - -66.7","?C","-68.3","Celsius"
"CCCCC1CCCCC1","-","14753","2636.0","BUTYLCYCLOHEXANE","-","A73784","-","-","-","-78.0 - -74.7","?C","-76.3","Celsius"
"CC1=CC=CC(C)=C1O","-","13839174","2637.0","2,6-Dimethylphenol","-","A73784","-","-","-","45.7 - 49.0","?C","47.4","Celsius"
"CC1=CC(=CC=C1)C(O)=O","-","7140","2638.0","3-Methylbenzoic acid","-","A73784","-","-","-","108.7 - 112.0","?C","110.0","Celsius"
"CCCCCCCCCCCCI","-","19108","2639.0","1-IODODODECANE","-","A73784","-","-","-","-3.0 - 0.3","?C","-1.35","Celsius"
"CC1=NS(=O)(=O)C2=CC(Cl)=CC=C2N1","-","2911","2640.0","diazoxide","-","A73784","-","-","-","327.2 - 330.5","?C","329.0","Celsius"
"NC(N)=O","-","1143","2642.0","Urea","-","A73784","-","-","-","132.7 - 136.0","?C","134.0","Celsius"
"ClC1=CC=CC=C1C=O","-","21106014","2643.0","2-chlorobenzaldehyde","-","A73784","-","-","-","9.0 - 12.4","?C","10.7","Celsius"
"NC1=CC=C(Br)C=C1","-","7519","2644.0","4-Bromoaniline","-","A73784","-","-","-","63.0 - 66.4","?C","64.7","Celsius"
"CCC1(CCC(=O)NC1=O)C1=CC=CC=C1","-","3367","2645.0","glutethimide","-","A73784","-","-","-","84.0 - 87.5","?C","85.8","Celsius"
"OC(=O)C1=CC=CC=C1NC1=CC=CC=C1","-","4233","2646.0","N-Phenylanthranilic Acid","-","A73784","-","-","-","183.5 - 187.0","?C","185.0","Celsius"
"CC1=CC=C(C=C1)S(=O)(=O)NC1CCCCC1","-","6381","2647.0","N-CYCLOHEXYL-4-METHYLBENZENESULFONAMIDE","-","A73784","-","-","-","84.5 - 88.0","?C","86.2","Celsius"
"CC(C)CNCC(C)C","-","7794","2648.0","DIISOBUTYLAMINE","-","A73784","-","-","-","-77.0 - -73.5","?C","-75.2","Celsius"
"COC","-","7956","2649.0","Dimethyl ether","-","A73784","-","-","-","-141.5 - -138.0","?C","-140.0","Celsius"
"OC(=O)C1=C(O)C(Cl)=CC(Cl)=C1","-","9073","2650.0","3,5-DICHLOROSALICYLIC ACID","-","A73784","-","-","-","220.5 - 224.0","?C","222.0","Celsius"
"CN(C)C1=CC=C(C=C1)C(=O)C1=CC=CC=C1","-","10284","2651.0","4-Dimethylaminobenzophenone","-","A73784","-","-","-","89.0 - 92.5","?C","90.8","Celsius"
"COC1=CC=C(C(C)=O)C(O)=C1","-","10621","2652.0","2'-Hydroxy-4'-methoxyacetophenone","-","A73784","-","-","-","49.0 - 52.5","?C","50.8","Celsius"
"NN1C=NN=C1","-","10951","2653.0","4-Amino-1,2,4-triazole","-","A73784","-","-","-","82.5 - 86.0","?C","84.2","Celsius"
"O=NC1=CC=CC=C1","-","10989","2654.0","NITROSOBENZENE","-","A73784","-","-","-","65.0 - 68.5","?C","66.8","Celsius"
"CC(C)(O)C(O)=O","-","11181","2655.0","2-HYDROXYISOBUTYRIC ACID","-","A73784","-","-","-","79.0 - 82.5","?C","80.8","Celsius"
"CN(C)C(N)=O","-","11244","2656.0","N,N-Dimethylurea","-","A73784","-","-","-","180.0 - 183.5","?C","182.0","Celsius"
"O=CC1=CC=CN1","-","13254","2657.0","PYRROLE-2-CARBOXALDEHYDE","-","A73784","-","-","-","43.0 - 46.5","?C","44.8","Celsius"
"C=CCN1C(=O)N(CC=C)C(=O)N(CC=C)C1=O","-","13329","2658.0","1,3,5-Triallyl-1,3,5-triazinane-2,4,6-trione","-","A73784","-","-","-","20.5 - 24.0","?C","22.2","Celsius"
"CC1=CC=C(O)C=C1Cl","-","14163","2659.0","3-Chloro-4-methylphenol","-","A73784","-","-","-","52.0 - 55.5","?C","53.8","Celsius"
"OP(O)(=O)C1=CC=CC=C1","-","14560","2660.0","PHENYLPHOSPHONIC ACID","-","A73784","-","-","-","161.0 - 164.5","?C","163.0","Celsius"
"OC1(CCCCC1)C1=CC=CC=C1","-","14582","2661.0","1-Phenylcyclohexanol","-","A73784","-","-","-","60.0 - 63.5","?C","61.8","Celsius"
"OP(O)(=O)CP(O)(O)=O","-","15308","2662.0","Methylenediphosphonic acid","-","A73784","-","-","-","199.5 - 203.0","?C","201.0","Celsius"
"CCCCCCCCCCCCCC=O","-","29031","2663.0","tetradecyl_aldehyde","-","A73784","-","-","-","20.5 - 24.0","?C","22.2","Celsius"
"O=C=NC1=CC=C(C=C1)N=C=O","-","54970","2664.0","1,4-Diisocyanatobenzene","-","A73784","-","-","-","94.0 - 97.5","?C","95.8","Celsius"
"CCCCCCCCOC(=O)C1=CC(O)=C(O)C(O)=C1","-","55194","2665.0","n-Octyl gallate","-","A73784","-","-","-","99.0 - 102.5","?C","101.0","Celsius"
"CN(C=O)C1=CC=CC=C1","-","60103","2666.0","N-Methylformanilide","-","A73784","-","-","-","11.0 - 14.5","?C","12.8","Celsius"
"CCOC1=CC=C(C=O)C=C1OC","-","60464","2667.0","4-Ethoxy-3-methoxybenzaldehyde","-","A73784","-","-","-","61.0 - 64.5","?C","62.8","Celsius"
"NC1=CC=CC2=C1C(N)=CC=C2","-","61381","2668.0","1,8-Diaminonaphthalene","-","A73784","-","-","-","63.0 - 66.5","?C","64.8","Celsius"
"CCC1=NC(C)=CN1","-","63447","2669.0","2-Ethyl-4-methylimidazole","-","A73784","-","-","-","47.0 - 50.5","?C","48.8","Celsius"
"ClC(=O)C(C1=CC=CC=C1)C1=CC=CC=C1","-","67212","2670.0","Diphenylacetyl chloride","-","A73784","-","-","-","53.0 - 56.5","?C","54.8","Celsius"
"CC(=O)NC(=O)CN","-","68309","2671.0","N-Acetylglycinamide","-","A73784","-","-","-","138.0 - 141.5","?C","140.0","Celsius"
"CS(=O)(=O)C1=CC=C(C=C1)C(O)=O","-","70071","2672.0","4-(Methylsulfonyl)benzoic acid","-","A73784","-","-","-","269.5 - 273.0","?C","271.0","Celsius"
"C\C(=C\C(O)=O)C(O)=O","-","553689","2673.0","Citraconic acid","-","A73784","-","-","-","90.0 - 93.5","?C","91.8","Celsius"
"CCC\C=C\C(O)=O","-","4445834","2676.0","trans-2-Hexenoic acid","-","A73784","-","-","-","33.0 - 36.5","?C","34.8","Celsius"
"CC(=O)NC1=CC=C(N)C=C1","-","10297844","2677.0","4'-Aminoacetanilide","-","A73784","-","-","-","163.0 - 166.5","?C","165.0","Celsius"
"ClC(=O)C1=CC=CC=C1C(Cl)=O","-","13865683","2678.0","PHTHALOYL CHLORIDE","-","A73784","-","-","-","12.0 - 15.5","?C","13.8","Celsius"
"NC1=CN=CC=C1","-","21111768","2679.0","3-Aminopyridine","-","A73784","-","-","-","61.0 - 64.5","?C","62.8","Celsius"
"NC1=C(Cl)C=C(Cl)C=C1Br","-","21168862","2680.0","2-BROMO-4,6-DICHLOROANILINE","-","A73784","-","-","-","80.0 - 83.5","?C","81.8","Celsius"
"NC1=C(N)C=NC=C1","-","5705","2681.0","3,4-Diaminopyridine","-","A73784","-","-","-","216.5 - 220.0","?C","218.0","Celsius"
"CCO[Si](OCC)(OCC)OCC","-","6270","2682.0","Tetraethyl orthosilicate","-","A73784","-","-","-","-86.0 - -82.5","?C","-84.2","Celsius"
"OCC1=C(F)C(F)=C(F)C(F)=C1F","-","9535","2683.0","2,3,4,5,6-Pentafluorobenzyl alcohol","-","A73784","-","-","-","34.0 - 37.5","?C","35.8","Celsius"
"CC1=CC=C2NC=NC2=C1","-","11484","2684.0","5-Methylbenzimidazole","-","A73784","-","-","-","112.0 - 115.5","?C","114.0","Celsius"
"CC1=CC=C(C=C1)C1=CC=CC=C1","-","12047","2685.0","4-Methylbiphenyl","-","A73784","-","-","-","46.0 - 49.5","?C","47.8","Celsius"
"CP(O)(O)=O","-","13220","2686.0","METHYLPHOSPHONIC ACID","-","A73784","-","-","-","105.0 - 108.5","?C","107.0","Celsius"
"C(NC1=NC=NC2=C1NC=N2)C1=CC=CC=C1","-","56177","2687.0","N-Benzyl-9H-purin-6-amine","-","A73784","-","-","","231.0","?C","231.0","Celsius"
"CC1=CC=CNC1=O","-","63658","2688.0","3-Methyl-2-pyridone","-","A73784","-","-","-","138.0 - 141.5","?C","140.0","Celsius"